LAMMPS DATA FILE

5760 atoms
2 atom types

-20.0 129.47585274844192 xlo xhi
-1.08843707684 32.3166870761 ylo yhi
-1.09406125551 32.3223112555 zlo zhi

Masses

1 28.0855
2 72.64

Atoms

1 1 0.0 2.425715780756461 24.72919566288151
2 1 0.08407742603831861 7.999271704931977 19.090080368842784
3 1 0.09528201520013879 7.984438308732646 13.53763380413334
4 1 0.11052076426738822 13.54622133403293 24.60808842545947
5 1 0.1127825771694967 10.792229783024162 10.746415603632869
6 1 0.12344685564190096 13.558361484064672 2.3529987706966424
7 1 0.13180461951624595 5.197659806388317 27.515992718693102
8 1 0.13395894590372137 10.69130839811958 21.900328631506234
9 1 0.14353227017760972 21.87262506155654 10.798259049687587
10 1 0.15516719155579642 8.071033147490706 2.4140127825568953
11 1 0.15913112150948194 21.922792062768462 -0.4420565438020798
12 1 0.1807899201163881 7.898458278204099 8.056801150696252
13 1 0.1840547285609694 2.4997818681607082 13.513817269115135
14 1 0.19372040632991439 10.844659663606299 5.229038133338515
15 1 0.1938225362229566 16.359592971197 27.417520111576508
16 1 0.2003579948022816 10.83219050573532 -0.39014044953987226
17 1 0.20219424522156126 16.290302550394973 10.795580235677093
18 1 0.20539775038109503 5.285958110971489 10.71754661285078
19 1 0.20849035434459534 13.55323199305987 7.9298837680240135
20 1 0.21483187613946952 24.743895962715584 30.20426660213873
21 1 0.22056258479464963 13.506490530632965 13.581124313653223
22 1 0.22497514027267068 19.143616002081036 13.518041088557558
23 1 0.22682596872587452 21.86497983641594 5.205159246540688
24 1 0.22854000327562263 -0.372537636852962 10.65593722280321
25 1 0.22950689119771062 16.388781108174587 21.855784157006536
26 1 0.23033150415876913 10.704535661305613 27.43577163877238
27 1 0.23347040654285603 13.43695837619346 19.072168141734814
28 1 0.23362741437436657 10.813447602350827 16.31246223354674
29 1 0.23410201490904292 30.26984573239472 7.8130883503514355
30 1 0.23555944049141425 19.075756904114986 8.005815293474043
31 1 0.2359566499396355 16.23703801472928 5.142648048359174
32 1 0.23744785767836674 19.222843799258282 2.3984502594952892
33 1 0.24079035212138666 -0.44389025473789606 16.377115645982727
34 1 0.2420390873559789 21.832322096633774 16.250621812862338
35 1 0.24794844636428898 27.36886588898043 16.29690195828347
36 1 0.2480589581573603 2.3832783602382674 8.029513502200626
37 1 0.2505171891139124 16.324848292392655 16.17978302530588
38 1 0.2536312384415532 -0.3378616664666074 27.46085416197182
39 1 0.2545843588288704 30.25456829116495 24.725375857388617
40 1 0.254708115462328 27.569496429464486 5.154239188947342
41 1 0.2563147439011797 19.234351939818897 18.994191325957427
42 1 0.2580455651770644 24.661105851742278 7.997941621119217
43 1 0.2624787145478566 27.465454054499247 10.754438592590281
44 1 0.26760071898909016 8.029172012207987 30.284301510301777
45 1 0.26951145118435504 24.57017943587911 13.54330664233553
46 1 0.27297305766368357 24.69458509099227 2.3978677275810156
47 1 0.27330084011600786 30.274102083855258 13.60649232623712
48 1 0.27519869559615734 5.140031945468672 21.97031613138965
49 1 0.27859116168185616 5.23526510844975 16.275622230763865
50 1 0.2849515812206451 19.076864642821743 24.754974802502563
51 1 0.2861532052696819 -0.2624048609795899 -0.4175702698857954
52 1 0.28769324557042375 21.89294643248869 27.412669079375597
53 1 0.29021483844331575 21.824141364018075 21.984450406182415
54 1 0.29287185705758784 7.906277210629975 24.69570555027143
55 1 0.2963884183301545 -0.33167943598089306 21.928320389741234
56 1 0.29775620646202394 5.249555275983464 5.325573466797235
57 1 0.3043646690926797 2.436576364425246 30.278771406566396
58 1 0.31092138685632764 24.59249942507097 19.087548010540008
59 1 0.3116442114086879 16.369354843968786 -0.4824808111995394
60 1 0.3130432896296969 19.103219322317663 30.166821029910736
61 1 0.3183383345621361 5.234021546601801 -0.45532170608226696
62 1 0.33089681322585907 30.233869330774816 2.3701683485869944
63 1 0.3325468989639609 30.2200830999821 19.099642639907724
64 1 0.33770745764884147 2.537345356824401 19.039468656144745
65 1 0.33962845523142815 27.46093486579529 21.926436875491916
66 1 0.35522647690013615 13.496158103883925 30.352500795433063
67 1 0.35694316836733386 27.48830036854649 -0.36224184557816075
68 1 0.36932581752154764 -0.3440865155538796 5.127539831463696
69 1 0.37096020760438414 2.4277834452158844 2.4396377421485407
70 1 0.3972964212628747 30.20716574075796 30.17970840904472
71 1 0.4054063330055535 27.449230725735852 27.566327111870898
72 1 0.41144370314610257 24.669751169383492 24.487570801173334
73 1 1.4471609806741805 14.89174824599239 9.358027569083948
74 1 1.4471910589388362 12.149193498453952 0.9725683319652437
75 1 1.4505999347028136 12.12106266348895 23.212466724009158
76 1 1.4675716153317047 9.355292459773493 31.68444671071929
77 1 1.4790937840137461 1.096213975421809 23.460674714310294
78 1 1.484946601700548 23.282442245829678 1.0399185829890936
79 1 1.4904810702335085 31.6043931431229 9.280886915439273
80 1 1.4958065530980014 6.570934805591099 12.138155565657843
81 1 1.4967693434331653 1.0285915258596063 12.11558651677798
82 1 1.4972925799304446 20.53143045718626 20.53760285387776
83 1 1.5057901140196737 3.738558506013089 26.043774158029947
84 1 1.5078070536038495 14.975361423692613 26.034760126759696
85 1 1.5123049449961656 17.653897645794675 1.034508867907715
86 1 1.5132778451742217 9.402200093507592 9.451049836896294
87 1 1.5135482550080492 6.679096826557271 28.732232119363047
88 1 1.514318993983632 9.43228516578651 14.945136147421477
89 1 1.516504964458052 9.416992594281796 3.8901921970113205
90 1 1.5196411118035926 12.099590441309442 12.205403986127825
91 1 1.5228626579967852 23.25420358774468 6.601515690150174
92 1 1.5249718621513102 31.61400605422641 14.987960386863074
93 1 1.5259861879875845 1.0571919610867861 28.908713432104463
94 1 1.5275213359813793 17.727235925177474 6.5211347909268245
95 1 1.528398247159528 6.621777464738473 17.6983395544951
96 1 1.5287537294744942 3.7694120760652265 3.8504523493711087
97 1 1.532297166863564 3.83419689255043 20.47765939513684
98 1 1.5348590840849674 26.129979424121288 31.630295275573086
99 1 1.5393078730559766 14.912301834759743 14.872818520892938
100 1 1.5414995097898618 31.68841443422637 26.063475948670074
101 1 1.5446642877854386 17.728713430338424 12.189258693477663
102 1 1.5478914118049705 25.969254337637928 14.902674749321033
103 1 1.5507029171498028 20.46317222672331 14.77599181153429
104 1 1.5556278189761366 9.313066425035482 20.521343989434346
105 1 1.556028293391775 14.95468179005625 20.454575561237803
106 1 1.5602265073210557 31.628976742048625 20.539370018139493
107 1 1.563557153447428 17.76060634582351 17.627822063281904
108 1 1.565470288933831 12.112244819169272 28.77316431543748
109 1 1.5696566522227677 20.508287568152937 31.633747869312927
110 1 1.5756708447490673 6.773832035000297 1.0170224440736189
111 1 1.579892781338827 20.516972306767183 3.7485085711797965
112 1 1.5832070189093284 1.047145824184292 17.67575768825882
113 1 1.587485188190147 6.6253214839344 6.7387930127950435
114 1 1.587938686860308 12.15625596226171 6.6393053142463065
115 1 1.5886349804406497 9.37943322744893 25.922744333274984
116 1 1.5898963834679745 26.097226382870588 3.841261545981863
117 1 1.5914567797696866 1.0636806532052994 1.0642326526312156
118 1 1.5948075906195287 28.8933484926184 12.16441939429276
119 1 1.595962361297417 23.211862992528314 12.164702640999263
120 1 1.607220890617126 20.40947930822708 9.464506883752234
121 1 1.615314249540652 28.80843189888228 23.43418807869282
122 1 1.616351141539318 6.564351348181826 23.265628639871995
123 1 1.617015725688507 14.887369478043386 3.753872870415494
124 1 1.6199363744856414 28.755160733637663 17.756658750896776
125 1 1.6233415171744776 3.8019992184392266 14.943556017791568
126 1 1.6299871006687547 23.299082526720667 28.923435044924968
127 1 1.6304405683559382 1.0517851378736451 6.607000539114411
128 1 1.6315856806815245 25.898068481725836 26.132163322325066
129 1 1.6336071748417837 3.826188524062597 31.55388317621762
130 1 1.6394424651759842 28.820894534252325 6.599208705552958
131 1 1.6405356023133937 31.70448900050478 31.638744522424247
132 1 1.6405917312783633 17.72852386495058 23.244392484743173
133 1 1.6454839937020913 14.998022074732832 31.633479238485883
134 1 1.6468676698512805 26.077139163485267 20.449934255077753
135 1 1.6567236790348414 28.823823610127924 1.1244863914248837
136 1 1.6643397624677967 26.123711089784464 9.371642728297584
137 1 1.6704876611053112 17.72758256211669 28.77028827373491
138 1 1.6813423457055132 23.2283297068939 17.692480845678787
139 1 1.689270423375076 23.20500071735635 23.185667925172186
140 1 1.6907571278513913 20.47750153055389 26.065195123811744
141 1 1.6914352865308848 3.8326683245811846 9.475606536783365
142 1 1.7057987286690548 12.188428436372831 17.639245560185184
143 1 1.720947595263702 28.910445081694366 28.765984439504933
144 1 1.7492744027836349 31.54237886737126 3.819882707817309
145 1 2.705990661185758 24.68275880103133 5.251225054359845
146 1 2.7109221598979407 -0.3988357132555141 13.662953701014592
147 1 2.762046593364447 24.65621128109443 -0.4064163316108032
148 1 2.78904554149113 2.407433620532903 21.849268233562164
149 1 2.795629664233614 8.045365197213933 16.352336912000105
150 1 2.800442321135175 10.74662242343439 19.108928199527114
151 1 2.806997315737572 10.825969390262486 13.61059431046045
152 1 2.810233853334797 24.607148309839165 10.804408970679981
153 1 2.8131764905757857 5.216174489299974 19.09219969810888
154 1 2.8177390970325353 7.964437986384078 5.233009669316978
155 1 2.818296373773409 19.012528363167107 16.26202361012785
156 1 2.8213749607137424 16.322218468693627 7.92465050766441
157 1 2.822045977637878 -0.3699724357141943 24.614908623895676
158 1 2.8225754372283447 13.49834611833411 27.41164135737754
159 1 2.8321179827562486 5.097810445013777 24.666248310354682
160 1 2.833381526844095 7.926375412546735 21.795109992651398
161 1 2.8342473181940644 19.055101591554067 5.0293602744541275
162 1 2.8363334282357515 2.4503922092578625 27.532503509336294
163 1 2.84803998467945 10.778614873134796 2.460789439406526
164 1 2.84833649275623 13.521145702651065 21.804307058282152
165 1 2.848973979906786 27.469253240606523 13.573477060394884
166 1 2.850746564370544 -0.3462965010116031 8.103333016723223
167 1 2.854299835866795 5.279256227960253 2.4603837836258897
168 1 2.855262257607931 13.557208541838481 10.80977308361321
169 1 2.856782255195423 13.589973296831076 5.13234993659199
170 1 2.863010326496944 30.24002360116583 -0.3374039812038481
171 1 2.8654590764263386 10.759902096662573 24.504162163492136
172 1 2.870166152086541 8.127500683906362 -0.4311407128046722
173 1 2.874271576989868 8.069748772442757 10.75967652295053
174 1 2.875207722326394 13.560921778880061 -0.36592744113811493
175 1 2.876384973408169 5.260011306968469 30.145188634039272
176 1 2.879047998845776 30.19120391527269 16.32730791433536
177 1 2.88033836885015 16.158193587797044 2.263264269657403
178 1 2.881480505719815 2.5213622736776387 16.339852308847522
179 1 2.8821176463527043 21.98257565233221 2.3834945807892822
180 1 2.8858709922912302 -0.29741943277809685 30.241093194539502
181 1 2.88901728310046 21.782880624083077 7.972548458264409
182 1 2.8892615006171467 -0.3368861433422814 19.148635221968778
183 1 2.8923059192716667 10.664315762529755 30.290052837597997
184 1 2.8938205888780018 30.297844151543238 27.398977673366275
185 1 2.894477479228393 30.11218771112457 21.961393155715164
186 1 2.8976104270062613 24.657188619956408 16.289889503498497
187 1 2.9002940709960283 5.218801309841488 8.065750571322118
188 1 2.902697158785357 19.037034380927366 -0.5132466599446779
189 1 2.9027560385819986 27.594940784613776 30.168408190984614
190 1 2.907471013405935 2.4629051804553037 -0.3093638779432083
191 1 2.9086602364317957 21.881453364404962 30.28754624796643
192 1 2.909199045078142 16.277866171808352 24.680629702035333
193 1 2.909275599719837 30.27090503090388 10.744592481666283
194 1 2.9135268937139993 27.510296563236327 8.060845749485283
195 1 2.9210212312397816 16.28899505731441 13.534854233756914
196 1 2.9317803771395607 21.810603907756366 19.04176304112222
197 1 2.9349192934792763 -0.36791601703876053 2.471793529661772
198 1 2.944230856823911 5.171649877969046 13.673779111510155
199 1 2.946836191417435 21.79227466921933 13.513821673228955
200 1 2.951347907574973 16.248368172694846 19.11622376106195
201 1 2.9514666449320908 10.855929372059382 8.090139910298218
202 1 2.962066107601615 27.467266860044607 24.755578749455797
203 1 2.975400220978225 2.3724013160116773 10.81110186861171
204 1 2.993121759141366 16.33113053019771 30.10545956032579
205 1 2.9933399790574793 2.485973629622601 5.222193919321698
206 1 2.994559675614466 8.065684793488137 27.42412346074537
207 1 2.9991244198881035 19.206845870811343 21.90888745670646
208 1 3.000991946760332 27.444796744111695 2.4936362278203505
209 1 3.00172908640918 19.109598971002452 27.41560607550617
210 1 3.0096178975507413 13.61169565470642 16.28270952364903
211 1 3.011920949920334 24.596270974365424 21.803556194190758
212 1 3.0158090061227565 19.034927290368806 10.69386691938171
213 1 3.0273250500703353 21.974846187251398 24.73102732499722
214 1 3.027373589861169 24.60231772694438 27.51893550555595
215 1 3.0409859888156934 27.447554508963456 19.111685631642256
216 1 3.0619889787402945 30.31608623500064 5.295574414382572
217 1 4.012086455020978 6.664491654932599 31.5424632786271
218 1 4.069405596578326 26.058917670566096 0.9355048478128887
219 1 4.094807681837607 23.198676225733028 9.526072836406538
220 1 4.1209374708685065 9.437047106885725 12.223672481230434
221 1 4.127951815523139 9.199054004365042 23.25201121738293
222 1 4.12871452423006 1.1179594708990641 25.991731306088532
223 1 4.1310889720306605 26.145299319770402 12.17431450335324
224 1 4.135559196661249 26.002666233178797 6.676064367643645
225 1 4.13663044070965 12.193331335579122 31.61291163902225
226 1 4.145379853790642 0.9703078072243622 15.13184678995761
227 1 4.14941423295979 9.400104680847068 17.669044636141546
228 1 4.1511999465373295 6.75153933024167 14.956905715034457
229 1 4.152678194951212 31.66183581076655 12.227173383104988
230 1 4.156049485391901 17.64791504139477 14.919267936247445
231 1 4.1580430168086675 31.61694372162726 23.339039702434544
232 1 4.158731732654434 23.22405834285402 3.7828894580400414
233 1 4.158864844072486 20.39161796557991 6.547721263231201
234 1 4.1613765691305655 9.409403302835278 1.0826158643297739
235 1 4.16190266772639 31.776275920750024 28.864585440966735
236 1 4.163313101738379 20.443258628171336 0.9783468092512939
237 1 4.1676130756786804 1.0381133055897742 20.620355423409496
238 1 4.170945435117466 14.988164107609323 6.575789240680054
239 1 4.172681880261023 31.525491080273888 17.78409962242957
240 1 4.175090249769326 12.160813728909622 3.78648937603285
241 1 4.179007121927938 1.009379659582121 9.337916016218129
242 1 4.179044720069558 14.967617860479624 12.221760847885774
243 1 4.179621553837246 17.605031635095372 3.7719777641214063
244 1 4.183915149794915 31.62922507361151 0.99797739042714
245 1 4.192332433512175 3.797548599716391 23.12390591237765
246 1 4.196300113853728 6.66078330470302 3.8889554967824598
247 1 4.200588198363272 14.901062889332232 23.198813053965708
248 1 4.208615211838601 17.647185428420816 9.20248203079876
249 1 4.211812685403242 9.510280463366197 6.55106209448756
250 1 4.213554427314126 28.9799761050706 31.6908796938308
251 1 4.213999627140207 3.9243093574460035 1.0721806268919223
252 1 4.2141045082314585 3.7599027532250813 28.812902588446693
253 1 4.2152833506497025 26.039210789091513 23.28317887355069
254 1 4.217424346029871 6.394261693186575 26.08126057457523
255 1 4.221177103700253 20.42900645829 12.137035977717826
256 1 4.225247964762698 17.671409867118125 20.504349420004278
257 1 4.229434023347211 28.97847646046169 3.829588208263528
258 1 4.234305591206908 12.14188175855716 14.865654342169417
259 1 4.2350343402700386 12.22254159448381 9.460422208380066
260 1 4.237663834014926 28.878602323963776 9.401094518965309
261 1 4.239010282268169 28.846760556471402 26.206326018193277
262 1 4.241560430069455 3.858168555195416 17.788201716957534
263 1 4.242862961408344 12.218785156363717 25.95983116187299
264 1 4.2454146180022425 31.71662719523983 6.729831589259609
265 1 4.250699791838765 28.831693912311763 15.029669649533576
266 1 4.252545718533558 3.776091654558877 12.263506605893438
267 1 4.254757226227605 20.44919928387157 28.801316843109593
268 1 4.25840656299245 1.0517889433609116 3.8572501950841733
269 1 4.260392661310468 17.707245392925916 31.545135100269473
270 1 4.260737818613375 14.821219414923823 0.9681810602277184
271 1 4.264176892946085 3.8727060117745067 6.657197795985488
272 1 4.2698818173101145 6.591496870232435 20.414379849513015
273 1 4.272326000614228 26.082486925466803 28.88537535004277
274 1 4.275591110360117 6.6949766537845825 9.407485642119724
275 1 4.276514093854933 20.42357246256106 17.696510354224877
276 1 4.280820454278375 26.018956095098286 17.70981962378852
277 1 4.283155527156741 23.33722209813226 31.613452980810315
278 1 4.284232632997909 1.128407994833711 31.7097782071169
279 1 4.290693062445351 23.2481016530694 14.963020603243054
280 1 4.294868840882799 12.114178815274592 20.452132937841345
281 1 4.295760519263214 28.75066566461061 20.535545613540723
282 1 4.305468454388496 14.851613904635533 28.848352242526175
283 1 4.3356636945046665 23.172677501956176 20.457739362696508
284 1 4.337161433455486 14.900965817920193 17.766773157841786
285 1 4.348922022819421 9.406671510308465 28.864827400462378
286 1 4.356825657301752 20.57693575821785 23.314015702805676
287 1 4.366092739853662 17.684113309521692 26.042938217274155
288 1 4.3736906312392225 23.305935032277382 26.22048437192377
289 1 5.334598639165968 10.771922301070353 10.775835677369177
290 1 5.38776018267149 24.64197325074442 8.059733178780805
291 1 5.414212746982115 8.111287097595524 2.434304253017022
292 1 5.419335076813112 5.229783965527695 16.345856995514573
293 1 5.436399415261683 7.8564461274098045 24.694010171790175
294 1 5.437001167965921 30.257934980702306 13.531127123066096
295 1 5.439563990755179 24.585560547303217 2.4430999892419556
296 1 5.4431120932594705 10.748204270087916 -0.44300312482726767
297 1 5.447217207453392 -0.3931014146690266 10.783859722079702
298 1 5.458242395083275 5.336568117682445 -0.4242367397553338
299 1 5.462066767338779 10.737177466358665 21.908381299030577
300 1 5.462732405616141 2.4332094055197957 19.11390890954338
301 1 5.471257663510025 19.081437487793938 2.4644573990994783
302 1 5.4716934266123785 30.37732036292601 30.312453519516126
303 1 5.473004000253099 27.497049914401696 5.259851348117797
304 1 5.475544676004974 -0.501549781523277 16.42216698988876
305 1 5.476409903308651 -0.3311666240802973 -0.4126345696653441
306 1 5.484946748722592 27.557235293929025 -0.2997746921785254
307 1 5.485206752986935 2.401972876443704 8.034226745845395
308 1 5.486698757896939 2.453635184048281 2.357538555077562
309 1 5.48881805198203 13.452214822040325 2.46164265206875
310 1 5.49291269708506 5.1229350293819556 27.513678402233054
311 1 5.494747286382977 -0.1941939089057465 27.45549595852471
312 1 5.495590887843918 13.616677875903642 7.991213220836772
313 1 5.4993513512479435 10.765516807885682 16.350868361948038
314 1 5.500204326690962 13.518452055228451 30.343137527998266
315 1 5.501335123915021 -0.39931451592956085 5.276206372271635
316 1 5.501942228431865 30.319272271371574 24.74672029892129
317 1 5.504320207753773 16.29532147643884 -0.3608437533196501
318 1 5.507047202327 2.453923517104073 24.54427266392225
319 1 5.50794984330539 8.010146625702413 30.252912017804242
320 1 5.508928799448982 5.209691159921134 10.835273461769003
321 1 5.509111755367135 16.232087918674164 10.701877214045046
322 1 5.5104528188179325 16.3399628144677 21.84637664648286
323 1 5.512940784494858 27.360244924933244 21.93519798461934
324 1 5.517665086807394 16.31927016078182 5.159750694394799
325 1 5.51870314214334 21.75833146706269 16.211634273057644
326 1 5.519417559371857 2.3317257795355326 13.754998010401689
327 1 5.5240401224685804 -0.4763379524717389 21.833691291815118
328 1 5.524350288843616 8.121364700924042 13.578631299556776
329 1 5.525170722035845 21.825682585497848 10.68101769793357
330 1 5.531828100904101 21.83654499773645 5.174024672789956
331 1 5.536462982846249 19.176166209310864 19.163566172680934
332 1 5.537667811815384 27.46915667411637 10.737879636734748
333 1 5.547037573869153 18.92886612977299 13.601150280175533
334 1 5.5487448859365465 8.149808001881938 7.9298527313375
335 1 5.55216308732077 21.822971434012654 -0.38089889749160727
336 1 5.560806276213865 16.277396313763024 27.474103922949144
337 1 5.560969656330723 8.004185218129233 19.036056278568125
338 1 5.5614650171601205 30.189463102408546 19.13937308065427
339 1 5.569804411460941 27.427652916359307 16.355446908572144
340 1 5.570635397864302 2.4488269500481237 30.27094439936177
341 1 5.574021835203584 19.06433776716932 7.861686055753621
342 1 5.5770247468778145 16.37478576717799 16.36310845126622
343 1 5.586721520724764 30.2433084478088 8.026902648422318
344 1 5.59880949427278 10.864088232259963 27.37962960055866
345 1 5.599449502746665 5.216061715204138 5.243629678021926
346 1 5.60282606332469 30.332440807760115 2.3291370552779833
347 1 5.60948532649459 19.08162310365062 24.757935326149962
348 1 5.614968963216369 13.572601748719155 13.563777351149373
349 1 5.617964358373694 24.50927512157045 19.02313483292071
350 1 5.619025212104456 10.857587335040934 5.051899134045715
351 1 5.623249196789324 19.033121217860785 30.129162265470036
352 1 5.624396912405601 13.61442040013042 24.67398860177069
353 1 5.63566978928099 24.706296996604916 24.72764070799354
354 1 5.636182048054895 27.44172090448899 27.552534842546713
355 1 5.650977996838761 13.58787859511564 19.180779183836616
356 1 5.6599403904667875 24.638802563030577 30.1561931818913
357 1 5.659990568849874 24.570612552376083 13.515149681678222
358 1 5.666431895746439 5.19806162315447 21.75893202760378
359 1 5.676318299577501 21.891370002679288 27.4846320990775
360 1 5.724028232316078 21.912714933664137 21.90538900280324
361 1 6.711158126035063 6.70290835219743 12.192816335857431
362 1 6.713530350722362 26.01551847797633 3.8870984542623805
363 1 6.739135592342216 6.721685541117856 1.0073575631270848
364 1 6.742620483077991 25.985443346793833 20.495580604460788
365 1 6.745641522334461 26.095722829610782 31.773269827098847
366 1 6.756235323136279 6.499714497935995 23.29423899525692
367 1 6.760306635462073 12.262917123885227 6.595509962712609
368 1 6.779060507756761 9.322232470654948 26.074577026485326
369 1 6.7801959743522975 28.89137033632095 12.13524077596884
370 1 6.780462637299115 0.9296659064766165 12.29629111500054
371 1 6.782919301487055 23.263444907264045 6.572382998712031
372 1 6.78450304578008 17.649681008197327 12.005655952747224
373 1 6.786265433561847 1.0454870764447994 23.190479605914323
374 1 6.786304095747775 25.987223498273565 9.42173994006791
375 1 6.787352696104221 3.866449423355946 3.7878417228849055
376 1 6.788301134848784 9.401741659316697 20.504123566944074
377 1 6.7905313204341615 9.452655372944323 9.37814802713929
378 1 6.79456421183889 31.613189792520867 14.942382729713065
379 1 6.797517243520487 3.7833425013682644 9.451088716243472
380 1 6.798488811387033 17.74145942506715 17.870237293530984
381 1 6.802227730728697 17.65788895321713 1.0455044770667554
382 1 6.807809440668976 12.145709843765248 12.173472493844889
383 1 6.813160689123775 3.86038233585265 31.64755588271526
384 1 6.819965913616207 28.818590326780324 1.0960343626467703
385 1 6.820370177408146 12.226770842267499 28.891928680764057
386 1 6.823066991306827 9.419557119649422 14.999862223463968
387 1 6.824606014259501 12.12926746702418 1.0227483641615573
388 1 6.829580257859689 0.9998998888799271 17.748092104845085
389 1 6.829656316933201 6.512270288843703 28.917144726922757
390 1 6.831247976492264 20.39444238868041 14.917136487926008
391 1 6.83272272670709 31.669928805681092 3.904901801242906
392 1 6.834652345519816 28.924253022629717 28.91574413034002
393 1 6.834784615068593 3.7964654206658843 15.024829226391695
394 1 6.837386609872711 28.793472602620948 17.73604485269813
395 1 6.8392353351221145 26.042573588782588 14.965490030529516
396 1 6.843148371299371 31.647118216156564 26.14742373326185
397 1 6.846810596039598 28.807000725922524 6.6339635670848
398 1 6.850502856182606 3.775535845065745 26.081903106206294
399 1 6.861002099404694 6.581575340391491 17.652919103376018
400 1 6.863683166961455 14.946186585097365 3.810603292873303
401 1 6.8636886248422675 14.905159848945107 9.320860126111974
402 1 6.864672340329371 31.704315460043603 31.633828403609773
403 1 6.867814803311741 28.831512524375096 23.365934589508818
404 1 6.870680024676311 23.300059485250898 28.84701588205677
405 1 6.871301310159433 14.80500649069145 31.730461336851082
406 1 6.8713154664792135 12.127293697616402 23.31136021648328
407 1 6.875486327319354 26.01291374914455 26.194845837861994
408 1 6.876361736206324 1.0232632072290215 1.0049580874346944
409 1 6.8809118817719135 6.705878853403875 6.594149559710538
410 1 6.880920567566251 23.06563592031381 12.046216026659865
411 1 6.880990817207773 1.067520336452522 28.90387655474512
412 1 6.882053780826735 9.446183873071544 3.715917525070506
413 1 6.888737645970746 31.620476738626923 20.402027775850264
414 1 6.8891860504272 15.013964087500877 26.068802511005256
415 1 6.889951061976263 23.189468206365333 1.0086653683196043
416 1 6.893351551468063 9.317948102077628 31.62242919763612
417 1 6.893771135255724 3.71562258868281 20.470264922840332
418 1 6.895251708941124 1.0356459388157642 6.682064664820014
419 1 6.897441163387924 20.502488843723164 31.60413587288568
420 1 6.90370953327579 20.502947922236515 9.322673610267927
421 1 6.913169558891763 31.688863436206425 9.47982358574776
422 1 6.914264216052423 12.11401045808624 17.743485051108642
423 1 6.921920793755882 17.64404621318999 6.598683841766287
424 1 6.931252711865537 20.396970769303355 3.8083927709004106
425 1 6.932570284685494 15.004632294395785 20.53276384501406
426 1 6.933751408926858 14.933948933998645 14.952345238580873
427 1 6.937521749454061 17.6881244402342 23.261294094039656
428 1 6.9453676537324425 23.082161844601828 17.66705088435039
429 1 6.954967024215192 23.32291649842382 23.34518591822376
430 1 6.963961859764313 20.494023564915736 20.4791938776835
431 1 6.970985599688087 17.574883313138596 28.908553243316206
432 1 7.049980796005624 20.454777515484857 26.123067680914538
433 1 8.019690971168862 8.096563895158724 10.72207968993124
434 1 8.020423544180307 24.625412000234185 10.821285962542524
435 1 8.037496369252144 30.254509119021755 16.417894954590494
436 1 8.05412688105423 27.450264013833774 30.32487648019811
437 1 8.059421463958946 8.002075816337346 16.37655215210554
438 1 8.064421627102467 24.616170670466605 5.26691119526817
439 1 8.069861553499095 30.159877182537485 21.88489088164978
440 1 8.072259490918418 5.1834024793202715 13.543525904655837
441 1 8.077006407978269 27.38514655477895 19.094227862359705
442 1 8.083645457463385 5.223408911561785 8.05942105166948
443 1 8.084017231567046 27.3848677420415 2.4927593061984687
444 1 8.101688059017887 -0.33874954953451286 24.67618704913311
445 1 8.102953518954074 30.29701215408571 -0.2317131122017899
446 1 8.104171091273686 5.096926709191738 24.59227105029346
447 1 8.108944134086242 27.48621286945146 13.52600270006117
448 1 8.110036974394271 2.3692693239995135 5.203916961775071
449 1 8.114964355501463 24.603593492765505 -0.2765411025863718
450 1 8.11777463195905 30.178759735934122 5.162273036219168
451 1 8.12799715192487 10.860214920406618 7.963631101341607
452 1 8.127999968078552 2.476478307840031 -0.4324605068881969
453 1 8.131287117303886 2.5618104203312466 27.433365128673586
454 1 8.137274597636603 16.30090255270126 2.417137139500102
455 1 8.140242210734884 7.909524969377038 27.40123966368346
456 1 8.140361660730703 19.095964541835652 -0.437660883587371
457 1 8.142178180869445 -0.3690066321943156 13.614814271937396
458 1 8.144208332790312 5.21873779602263 19.04410831490379
459 1 8.145840838958803 10.72834113418431 24.654336863057512
460 1 8.149427640167836 10.816896187724625 30.259555396740595
461 1 8.151095444901369 27.56304642608404 24.720859192673615
462 1 8.152804321701334 10.763527843307518 13.550893201064909
463 1 8.159189678445 27.48254274422803 8.067453904836244
464 1 8.160884913849767 30.348819774447612 27.54248113585812
465 1 8.163859738390055 13.598845030204775 10.727402724266161
466 1 8.164059201777832 30.303644961223487 10.842437356768697
467 1 8.173643620464235 2.35201354377908 10.816447884484237
468 1 8.175185661859672 -0.3626365661267665 19.148958704262544
469 1 8.178847339459974 5.175991319036616 30.31965065351063
470 1 8.182973101464205 13.523907688243446 -0.35274790868063166
471 1 8.184208507665472 19.09603371685599 10.717619952620913
472 1 8.186051174835507 24.66738482903883 16.306203913574976
473 1 8.189553127592614 16.3556922561204 13.49714061077264
474 1 8.19071020338178 13.624779040076199 16.393992052640392
475 1 8.192011400383139 13.576578915228692 21.985989793265766
476 1 8.192076087449843 10.80058742167507 2.2517203926975533
477 1 8.19208557361054 10.760456264047196 19.201938112781963
478 1 8.194162771643454 8.030443562841018 5.203417616821562
479 1 8.197550783537807 7.965009661188111 -0.46096829576372284
480 1 8.20124135483928 2.4480486289488224 16.498857005263257
481 1 8.202500489520938 2.4259206808931766 21.81101867612344
482 1 8.203033791061703 -0.416926618326749 2.506582977910683
483 1 8.208240278174936 -0.30297638997519755 8.044186881364459
484 1 8.210045976255836 21.844251844045626 13.485791328697411
485 1 8.211683798629876 19.073080821156097 16.391085824683863
486 1 8.213988412600695 8.00048773585749 21.872888066466544