10x4x4 Silicon

1280 atoms

1 atom types

  0.00000000  54.31000000 xlo xhi
  0.00000000  21.72400000 ylo yhi
  0.00000000  21.72400000 zlo zhi

Masses

1 28.0855

Atoms

1 1   0.00000000   0.00000000   0.00000000
2 1   0.00000000   2.71550000   2.71550000
3 1   2.71550000   0.00000000   2.71550000
4 1   2.71550000   2.71550000   0.00000000
5 1   1.35775000   1.35775000   1.35775000
6 1   4.07325000   4.07325000   1.35775000
7 1   1.35775000   4.07325000   4.07325000
8 1   4.07325000   1.35775000   4.07325000
9 1   0.00000000   0.00000000   5.43100000
10 1   0.00000000   2.71550000   8.14650000
11 1   2.71550000   0.00000000   8.14650000
12 1   2.71550000   2.71550000   5.43100000
13 1   1.35775000   1.35775000   6.78875000
14 1   4.07325000   4.07325000   6.78875000
15 1   1.35775000   4.07325000   9.50425000
16 1   4.07325000   1.35775000   9.50425000
17 1   0.00000000   0.00000000  10.86200000
18 1   0.00000000   2.71550000  13.57750000
19 1   2.71550000   0.00000000  13.57750000
20 1   2.71550000   2.71550000  10.86200000
21 1   1.35775000   1.35775000  12.21975000
22 1   4.07325000   4.07325000  12.21975000
23 1   1.35775000   4.07325000  14.93525000
24 1   4.07325000   1.35775000  14.93525000
25 1   0.00000000   0.00000000  16.29300000
26 1   0.00000000   2.71550000  19.00850000
27 1   2.71550000   0.00000000  19.00850000
28 1   2.71550000   2.71550000  16.29300000
29 1   1.35775000   1.35775000  17.65075000
30 1   4.07325000   4.07325000  17.65075000
31 1   1.35775000   4.07325000  20.36625000
32 1   4.07325000   1.35775000  20.36625000
33 1   0.00000000   5.43100000   0.00000000
34 1   0.00000000   8.14650000   2.71550000
35 1   2.71550000   5.43100000   2.71550000
36 1   2.71550000   8.14650000   0.00000000
37 1   1.35775000   6.78875000   1.35775000
38 1   4.07325000   9.50425000   1.35775000
39 1   1.35775000   9.50425000   4.07325000
40 1   4.07325000   6.78875000   4.07325000
41 1   0.00000000   5.43100000   5.43100000
42 1   0.00000000   8.14650000   8.14650000
43 1   2.71550000   5.43100000   8.14650000
44 1   2.71550000   8.14650000   5.43100000
45 1   1.35775000   6.78875000   6.78875000
46 1   4.07325000   9.50425000   6.78875000
47 1   1.35775000   9.50425000   9.50425000
48 1   4.07325000   6.78875000   9.50425000
49 1   0.00000000   5.43100000  10.86200000
50 1   0.00000000   8.14650000  13.57750000
51 1   2.71550000   5.43100000  13.57750000
52 1   2.71550000   8.14650000  10.86200000
53 1   1.35775000   6.78875000  12.21975000
54 1   4.07325000   9.50425000  12.21975000
55 1   1.35775000   9.50425000  14.93525000
56 1   4.07325000   6.78875000  14.93525000
57 1   0.00000000   5.43100000  16.29300000
58 1   0.00000000   8.14650000  19.00850000
59 1   2.71550000   5.43100000  19.00850000
60 1   2.71550000   8.14650000  16.29300000
61 1   1.35775000   6.78875000  17.65075000
62 1   4.07325000   9.50425000  17.65075000
63 1   1.35775000   9.50425000  20.36625000
64 1   4.07325000   6.78875000  20.36625000
65 1   0.00000000  10.86200000   0.00000000
66 1   0.00000000  13.57750000   2.71550000
67 1   2.71550000  10.86200000   2.71550000
68 1   2.71550000  13.57750000   0.00000000
69 1   1.35775000  12.21975000   1.35775000
70 1   4.07325000  14.93525000   1.35775000
71 1   1.35775000  14.93525000   4.07325000
72 1   4.07325000  12.21975000   4.07325000
73 1   0.00000000  10.86200000   5.43100000
74 1   0.00000000  13.57750000   8.14650000
75 1   2.71550000  10.86200000   8.14650000
76 1   2.71550000  13.57750000   5.43100000
77 1   1.35775000  12.21975000   6.78875000
78 1   4.07325000  14.93525000   6.78875000
79 1   1.35775000  14.93525000   9.50425000
80 1   4.07325000  12.21975000   9.50425000
81 1   0.00000000  10.86200000  10.86200000
82 1   0.00000000  13.57750000  13.57750000
83 1   2.71550000  10.86200000  13.57750000
84 1   2.71550000  13.57750000  10.86200000
85 1   1.35775000  12.21975000  12.21975000
86 1   4.07325000  14.93525000  12.21975000
87 1   1.35775000  14.93525000  14.93525000
88 1   4.07325000  12.21975000  14.93525000
89 1   0.00000000  10.86200000  16.29300000
90 1   0.00000000  13.57750000  19.00850000
91 1   2.71550000  10.86200000  19.00850000
92 1   2.71550000  13.57750000  16.29300000
93 1   1.35775000  12.21975000  17.65075000
94 1   4.07325000  14.93525000  17.65075000
95 1   1.35775000  14.93525000  20.36625000
96 1   4.07325000  12.21975000  20.36625000
97 1   0.00000000  16.29300000   0.00000000
98 1   0.00000000  19.00850000   2.71550000
99 1   2.71550000  16.29300000   2.71550000
100 1   2.71550000  19.00850000   0.00000000
101 1   1.35775000  17.65075000   1.35775000
102 1   4.07325000  20.36625000   1.35775000
103 1   1.35775000  20.36625000   4.07325000
104 1   4.07325000  17.65075000   4.07325000
105 1   0.00000000  16.29300000   5.43100000
106 1   0.00000000  19.00850000   8.14650000
107 1   2.71550000  16.29300000   8.14650000
108 1   2.71550000  19.00850000   5.43100000
109 1   1.35775000  17.65075000   6.78875000
110 1   4.07325000  20.36625000   6.78875000
111 1   1.35775000  20.36625000   9.50425000
112 1   4.07325000  17.65075000   9.50425000
113 1   0.00000000  16.29300000  10.86200000
114 1   0.00000000  19.00850000  13.57750000
115 1   2.71550000  16.29300000  13.57750000
116 1   2.71550000  19.00850000  10.86200000
117 1   1.35775000  17.65075000  12.21975000
118 1   4.07325000  20.36625000  12.21975000
119 1   1.35775000  20.36625000  14.93525000
120 1   4.07325000  17.65075000  14.93525000
121 1   0.00000000  16.29300000  16.29300000
122 1   0.00000000  19.00850000  19.00850000
123 1   2.71550000  16.29300000  19.00850000
124 1   2.71550000  19.00850000  16.29300000
125 1   1.35775000  17.65075000  17.65075000
126 1   4.07325000  20.36625000  17.65075000
127 1   1.35775000  20.36625000  20.36625000
128 1   4.07325000  17.65075000  20.36625000
129 1   5.43100000   0.00000000   0.00000000
130 1   5.43100000   2.71550000   2.71550000
131 1   8.14650000   0.00000000   2.71550000
132 1   8.14650000   2.71550000   0.00000000
133 1   6.78875000   1.35775000   1.35775000
134 1   9.50425000   4.07325000   1.35775000
135 1   6.78875000   4.07325000   4.07325000
136 1   9.50425000   1.35775000   4.07325000
137 1   5.43100000   0.00000000   5.43100000
138 1   5.43100000   2.71550000   8.14650000
139 1   8.14650000   0.00000000   8.14650000
140 1   8.14650000   2.71550000   5.43100000
141 1   6.78875000   1.35775000   6.78875000
142 1   9.50425000   4.07325000   6.78875000
143 1   6.78875000   4.07325000   9.50425000
144 1   9.50425000   1.35775000   9.50425000
145 1   5.43100000   0.00000000  10.86200000
146 1   5.43100000   2.71550000  13.57750000
147 1   8.14650000   0.00000000  13.57750000
148 1   8.14650000   2.71550000  10.86200000
149 1   6.78875000   1.35775000  12.21975000
150 1   9.50425000   4.07325000  12.21975000
151 1   6.78875000   4.07325000  14.93525000
152 1   9.50425000   1.35775000  14.93525000
153 1   5.43100000   0.00000000  16.29300000
154 1   5.43100000   2.71550000  19.00850000
155 1   8.14650000   0.00000000  19.00850000
156 1   8.14650000   2.71550000  16.29300000
157 1   6.78875000   1.35775000  17.65075000
158 1   9.50425000   4.07325000  17.65075000
159 1   6.78875000   4.07325000  20.36625000
160 1   9.50425000   1.35775000  20.36625000
161 1   5.43100000   5.43100000   0.00000000
162 1   5.43100000   8.14650000   2.71550000
163 1   8.14650000   5.43100000   2.71550000
164 1   8.14650000   8.14650000   0.00000000
165 1   6.78875000   6.78875000   1.35775000
166 1   9.50425000   9.50425000   1.35775000
167 1   6.78875000   9.50425000   4.07325000
168 1   9.50425000   6.78875000   4.07325000
169 1   5.43100000   5.43100000   5.43100000
170 1   5.43100000   8.14650000   8.14650000
171 1   8.14650000   5.43100000   8.14650000
172 1   8.14650000   8.14650000   5.43100000
173 1   6.78875000   6.78875000   6.78875000
174 1   9.50425000   9.50425000   6.78875000
175 1   6.78875000   9.50425000   9.50425000
176 1   9.50425000   6.78875000   9.50425000
177 1   5.43100000   5.43100000  10.86200000
178 1   5.43100000   8.14650000  13.57750000
179 1   8.14650000   5.43100000  13.57750000
180 1   8.14650000   8.14650000  10.86200000
181 1   6.78875000   6.78875000  12.21975000
182 1   9.50425000   9.50425000  12.21975000
183 1   6.78875000   9.50425000  14.93525000
184 1   9.50425000   6.78875000  14.93525000
185 1   5.43100000   5.43100000  16.29300000
186 1   5.43100000   8.14650000  19.00850000
187 1   8.14650000   5.43100000  19.00850000
188 1   8.14650000   8.14650000  16.29300000
189 1   6.78875000   6.78875000  17.65075000
190 1   9.50425000   9.50425000  17.65075000
191 1   6.78875000   9.50425000  20.36625000
192 1   9.50425000   6.78875000  20.36625000
193 1   5.43100000  10.86200000   0.00000000
194 1   5.43100000  13.57750000   2.71550000
195 1   8.14650000  10.86200000   2.71550000
196 1   8.14650000  13.57750000   0.00000000
197 1   6.78875000  12.21975000   1.35775000
198 1   9.50425000  14.93525000   1.35775000
199 1   6.78875000  14.93525000   4.07325000
200 1   9.50425000  12.21975000   4.07325000
201 1   5.43100000  10.86200000   5.43100000
202 1   5.43100000  13.57750000   8.14650000
203 1   8.14650000  10.86200000   8.14650000
204 1   8.14650000  13.57750000   5.43100000
205 1   6.78875000  12.21975000   6.78875000
206 1   9.50425000  14.93525000   6.78875000
207 1   6.78875000  14.93525000   9.50425000
208 1   9.50425000  12.21975000   9.50425000
209 1   5.43100000  10.86200000  10.86200000
210 1   5.43100000  13.57750000  13.57750000
211 1   8.14650000  10.86200000  13.57750000
212 1   8.14650000  13.57750000  10.86200000
213 1   6.78875000  12.21975000  12.21975000
214 1   9.50425000  14.93525000  12.21975000
215 1   6.78875000  14.93525000  14.93525000
216 1   9.50425000  12.21975000  14.93525000
217 1   5.43100000  10.86200000  16.29300000
218 1   5.43100000  13.57750000  19.00850000
219 1   8.14650000  10.86200000  19.00850000
220 1   8.14650000  13.57750000  16.29300000
221 1   6.78875000  12.21975000  17.65075000
222 1   9.50425000  14.93525000  17.65075000
223 1   6.78875000  14.93525000  20.36625000
224 1   9.50425000  12.21975000  20.36625000
225 1   5.43100000  16.29300000   0.00000000
226 1   5.43100000  19.00850000   2.71550000
227 1   8.14650000  16.29300000   2.71550000
228 1   8.14650000  19.00850000   0.00000000
229 1   6.78875000  17.65075000   1.35775000
230 1   9.50425000  20.36625000   1.35775000
231 1   6.78875000  20.36625000   4.07325000
232 1   9.50425000  17.65075000   4.07325000
233 1   5.43100000  16.29300000   5.43100000
234 1   5.43100000  19.00850000   8.14650000
235 1   8.14650000  16.29300000   8.14650000
236 1   8.14650000  19.00850000   5.43100000
237 1   6.78875000  17.65075000   6.78875000
238 1   9.50425000  20.36625000   6.78875000
239 1   6.78875000  20.36625000   9.50425000
240 1   9.50425000  17.65075000   9.50425000
241 1   5.43100000  16.29300000  10.86200000
242 1   5.43100000  19.00850000  13.57750000
243 1   8.14650000  16.29300000  13.57750000
244 1   8.14650000  19.00850000  10.86200000
245 1   6.78875000  17.65075000  12.21975000
246 1   9.50425000  20.36625000  12.21975000
247 1   6.78875000  20.36625000  14.93525000
248 1   9.50425000  17.65075000  14.93525000
249 1   5.43100000  16.29300000  16.29300000
250 1   5.43100000  19.00850000  19.00850000
251 1   8.14650000  16.29300000  19.00850000
252 1   8.14650000  19.00850000  16.29300000
253 1   6.78875000  17.65075000  17.65075000
254 1   9.50425000  20.36625000  17.65075000
255 1   6.78875000  20.36625000  20.36625000
256 1   9.50425000  17.65075000  20.36625000
257 1  10.86200000   0.00000000   0.00000000
258 1  10.86200000   2.71550000   2.71550000
259 1  13.57750000   0.00000000   2.71550000
260 1  13.57750000   2.71550000   0.00000000
261 1  12.21975000   1.35775000   1.35775000
262 1  14.93525000   4.07325000   1.35775000
263 1  12.21975000   4.07325000   4.07325000
264 1  14.93525000   1.35775000   4.07325000
265 1  10.86200000   0.00000000   5.43100000
266 1  10.86200000   2.71550000   8.14650000
267 1  13.57750000   0.00000000   8.14650000
268 1  13.57750000   2.71550000   5.43100000
269 1  12.21975000   1.35775000   6.78875000
270 1  14.93525000   4.07325000   6.78875000
271 1  12.21975000   4.07325000   9.50425000
272 1  14.93525000   1.35775000   9.50425000
273 1  10.86200000   0.00000000  10.86200000
274 1  10.86200000   2.71550000  13.57750000
275 1  13.57750000   0.00000000  13.57750000
276 1  13.57750000   2.71550000  10.86200000
277 1  12.21975000   1.35775000  12.21975000
278 1  14.93525000   4.07325000  12.21975000
279 1  12.21975000   4.07325000  14.93525000
280 1  14.93525000   1.35775000  14.93525000
281 1  10.86200000   0.00000000  16.29300000
282 1  10.86200000   2.71550000  19.00850000
283 1  13.57750000   0.00000000  19.00850000
284 1  13.57750000   2.71550000  16.29300000
285 1  12.21975000   1.35775000  17.65075000
286 1  14.93525000   4.07325000  17.65075000
287 1  12.21975000   4.07325000  20.36625000
288 1  14.93525000   1.35775000  20.36625000
289 1  10.86200000   5.43100000   0.00000000
290 1  10.86200000   8.14650000   2.71550000
291 1  13.57750000   5.43100000   2.71550000
292 1  13.57750000   8.14650000   0.00000000
293 1  12.21975000   6.78875000   1.35775000
294 1  14.93525000   9.50425000   1.35775000
295 1  12.21975000   9.50425000   4.07325000
296 1  14.93525000   6.78875000   4.07325000
297 1  10.86200000   5.43100000   5.43100000
298 1  10.86200000   8.14650000   8.14650000
299 1  13.57750000   5.43100000   8.14650000
300 1  13.57750000   8.14650000   5.43100000
301 1  12.21975000   6.78875000   6.78875000
302 1  14.93525000   9.50425000   6.78875000
303 1  12.21975000   9.50425000   9.50425000
304 1  14.93525000   6.78875000   9.50425000
305 1  10.86200000   5.43100000  10.86200000
306 1  10.86200000   8.14650000  13.57750000
307 1  13.57750000   5.43100000  13.57750000
308 1  13.57750000   8.14650000  10.86200000
309 1  12.21975000   6.78875000  12.21975000
310 1  14.93525000   9.50425000  12.21975000
311 1  12.21975000   9.50425000  14.93525000
312 1  14.93525000   6.78875000  14.93525000
313 1  10.86200000   5.43100000  16.29300000
314 1  10.86200000   8.14650000  19.00850000
315 1  13.57750000   5.43100000  19.00850000
316 1  13.57750000   8.14650000  16.29300000
317 1  12.21975000   6.78875000  17.65075000
318 1  14.93525000   9.50425000  17.65075000
319 1  12.21975000   9.50425000  20.36625000
320 1  14.93525000   6.78875000  20.36625000
321 1  10.86200000  10.86200000   0.00000000
322 1  10.86200000  13.57750000   2.71550000
323 1  13.57750000  10.86200000   2.71550000
324 1  13.57750000  13.57750000   0.00000000
325 1  12.21975000  12.21975000   1.35775000
326 1  14.93525000  14.93525000   1.35775000
327 1  12.21975000  14.93525000   4.07325000
328 1  14.93525000  12.21975000   4.07325000
329 1  10.86200000  10.86200000   5.43100000
330 1  10.86200000  13.57750000   8.14650000
331 1  13.57750000  10.86200000   8.14650000
332 1  13.57750000  13.57750000   5.43100000
333 1  12.21975000  12.21975000   6.78875000
334 1  14.93525000  14.93525000   6.78875000
335 1  12.21975000  14.93525000   9.50425000
336 1  14.93525000  12.21975000   9.50425000
337 1  10.86200000  10.86200000  10.86200000
338 1  10.86200000  13.57750000  13.57750000
339 1  13.57750000  10.86200000  13.57750000
340 1  13.57750000  13.57750000  10.86200000
341 1  12.21975000  12.21975000  12.21975000
342 1  14.93525000  14.93525000  12.21975000
343 1  12.21975000  14.93525000  14.93525000
344 1  14.93525000  12.21975000  14.93525000
345 1  10.86200000  10.86200000  16.29300000
346 1  10.86200000  13.57750000  19.00850000
347 1  13.57750000  10.86200000  19.00850000
348 1  13.57750000  13.57750000  16.29300000
349 1  12.21975000  12.21975000  17.65075000
350 1  14.93525000  14.93525000  17.65075000
351 1  12.21975000  14.93525000  20.36625000
352 1  14.93525000  12.21975000  20.36625000
353 1  10.86200000  16.29300000   0.00000000
354 1  10.86200000  19.00850000   2.71550000
355 1  13.57750000  16.29300000   2.71550000
356 1  13.57750000  19.00850000   0.00000000
357 1  12.21975000  17.65075000   1.35775000
358 1  14.93525000  20.36625000   1.35775000
359 1  12.21975000  20.36625000   4.07325000
360 1  14.93525000  17.65075000   4.07325000
361 1  10.86200000  16.29300000   5.43100000
362 1  10.86200000  19.00850000   8.14650000
363 1  13.57750000  16.29300000   8.14650000
364 1  13.57750000  19.00850000   5.43100000
365 1  12.21975000  17.65075000   6.78875000
366 1  14.93525000  20.36625000   6.78875000
367 1  12.21975000  20.36625000   9.50425000
368 1  14.93525000  17.65075000   9.50425000
369 1  10.86200000  16.29300000  10.86200000
370 1  10.86200000  19.00850000  13.57750000
371 1  13.57750000  16.29300000  13.57750000
372 1  13.57750000  19.00850000  10.86200000
373 1  12.21975000  17.65075000  12.21975000
374 1  14.93525000  20.36625000  12.21975000
375 1  12.21975000  20.36625000  14.93525000
376 1  14.93525000  17.65075000  14.93525000
377 1  10.86200000  16.29300000  16.29300000
378 1  10.86200000  19.00850000  19.00850000
379 1  13.57750000  16.29300000  19.00850000
380 1  13.57750000  19.00850000  16.29300000
381 1  12.21975000  17.65075000  17.65075000
382 1  14.93525000  20.36625000  17.65075000
383 1  12.21975000  20.36625000  20.36625000
384 1  14.93525000  17.65075000  20.36625000
385 1  16.29300000   0.00000000   0.00000000
386 1  16.29300000   2.71550000   2.71550000
387 1  19.00850000   0.00000000   2.71550000
388 1  19.00850000   2.71550000   0.00000000
389 1  17.65075000   1.35775000   1.35775000
390 1  20.36625000   4.07325000   1.35775000
391 1  17.65075000   4.07325000   4.07325000
392 1  20.36625000   1.35775000   4.07325000
393 1  16.29300000   0.00000000   5.43100000
394 1  16.29300000   2.71550000   8.14650000
395 1  19.00850000   0.00000000   8.14650000
396 1  19.00850000   2.71550000   5.43100000
397 1  17.65075000   1.35775000   6.78875000
398 1  20.36625000   4.07325000   6.78875000
399 1  17.65075000   4.07325000   9.50425000
400 1  20.36625000   1.35775000   9.50425000
401 1  16.29300000   0.00000000  10.86200000
402 1  16.29300000   2.71550000  13.57750000
403 1  19.00850000   0.00000000  13.57750000
404 1  19.00850000   2.71550000  10.86200000
405 1  17.65075000   1.35775000  12.21975000
406 1  20.36625000   4.07325000  12.21975000
407 1  17.65075000   4.07325000  14.93525000
408 1  20.36625000   1.35775000  14.93525000
409 1  16.29300000   0.00000000  16.29300000
410 1  16.29300000   2.71550000  19.00850000
411 1  19.00850000   0.00000000  19.00850000
412 1  19.00850000   2.71550000  16.29300000
413 1  17.65075000   1.35775000  17.65075000
414 1  20.36625000   4.07325000  17.65075000
415 1  17.65075000   4.07325000  20.36625000
416 1  20.36625000   1.35775000  20.36625000
417 1  16.29300000   5.43100000   0.00000000
418 1  16.29300000   8.14650000   2.71550000
419 1  19.00850000   5.43100000   2.71550000
420 1  19.00850000   8.14650000   0.00000000
421 1  17.65075000   6.78875000   1.35775000
422 1  20.36625000   9.50425000   1.35775000
423 1  17.65075000   9.50425000   4.07325000
424 1  20.36625000   6.78875000   4.07325000
425 1  16.29300000   5.43100000   5.43100000
426 1  16.29300000   8.14650000   8.14650000
427 1  19.00850000   5.43100000   8.14650000
428 1  19.00850000   8.14650000   5.43100000
429 1  17.65075000   6.78875000   6.78875000
430 1  20.36625000   9.50425000   6.78875000
431 1  17.65075000   9.50425000   9.50425000
432 1  20.36625000   6.78875000   9.50425000
433 1  16.29300000   5.43100000  10.86200000
434 1  16.29300000   8.14650000  13.57750000
435 1  19.00850000   5.43100000  13.57750000
436 1  19.00850000   8.14650000  10.86200000
437 1  17.65075000   6.78875000  12.21975000
438 1  20.36625000   9.50425000  12.21975000
439 1  17.65075000   9.50425000  14.93525000
440 1  20.36625000   6.78875000  14.93525000
441 1  16.29300000   5.43100000  16.29300000
442 1  16.29300000   8.14650000  19.00850000
443 1  19.00850000   5.43100000  19.00850000
444 1  19.00850000   8.14650000  16.29300000
445 1  17.65075000   6.78875000  17.65075000
446 1  20.36625000   9.50425000  17.65075000
447 1  17.65075000   9.50425000  20.36625000
448 1  20.36625000   6.78875000  20.36625000
449 1  16.29300000  10.86200000   0.00000000
450 1  16.29300000  13.57750000   2.71550000
451 1  19.00850000  10.86200000   2.71550000
452 1  19.00850000  13.57750000   0.00000000
453 1  17.65075000  12.21975000   1.35775000
454 1  20.36625000  14.93525000   1.35775000
455 1  17.65075000  14.93525000   4.07325000
456 1  20.36625000  12.21975000   4.07325000
457 1  16.29300000  10.86200000   5.43100000
458 1  16.29300000  13.57750000   8.14650000
459 1  19.00850000  10.86200000   8.14650000
460 1  19.00850000  13.57750000   5.43100000
461 1  17.65075000  12.21975000   6.78875000
462 1  20.36625000  14.93525000   6.78875000
463 1  17.65075000  14.93525000   9.50425000
464 1  20.36625000  12.21975000   9.50425000
465 1  16.29300000  10.86200000  10.86200000
466 1  16.29300000  13.57750000  13.57750000
467 1  19.00850000  10.86200000  13.57750000
468 1  19.00850000  13.57750000  10.86200000
469 1  17.65075000  12.21975000  12.21975000
470 1  20.36625000  14.93525000  12.21975000
471 1  17.65075000  14.93525000  14.93525000
472 1  20.36625000  12.21975000  14.93525000
473 1  16.29300000  10.86200000  16.29300000
474 1  16.29300000  13.57750000  19.00850000
475 1  19.00850000  10.86200000  19.00850000
476 1  19.00850000  13.57750000  16.29300000
477 1  17.65075000  12.21975000  17.65075000
478 1  20.36625000  14.93525000  17.65075000
479 1  17.65075000  14.93525000  20.36625000
480 1  20.36625000  12.21975000  20.36625000
481 1  16.29300000  16.29300000   0.00000000
482 1  16.29300000  19.00850000   2.71550000
483 1  19.00850000  16.29300000   2.71550000
484 1  19.00850000  19.00850000   0.00000000
485 1  17.65075000  17.65075000   1.35775000
486 1  20.36625000  20.36625000   1.35775000
487 1  17.65075000  20.36625000   4.07325000
488 1  20.36625000  17.65075000   4.07325000
489 1  16.29300000  16.29300000   5.43100000
490 1  16.29300000  19.00850000   8.14650000
491 1  19.00850000  16.29300000   8.14650000
492 1  19.00850000  19.00850000   5.43100000
493 1  17.65075000  17.65075000   6.78875000
494 1  20.36625000  20.36625000   6.78875000
495 1  17.65075000  20.36625000   9.50425000
496 1  20.36625000  17.65075000   9.50425000
497 1  16.29300000  16.29300000  10.86200000
498 1  16.29300000  19.00850000  13.57750000
499 1  19.00850000  16.29300000  13.57750000
500 1  19.00850000  19.00850000  10.86200000
501 1  17.65075000  17.65075000  12.21975000
502 1  20.36625000  20.36625000  12.21975000
503 1  17.65075000  20.36625000  14.93525000
504 1  20.36625000  17.65075000  14.93525000
505 1  16.29300000  16.29300000  16.29300000
506 1  16.29300000  19.00850000  19.00850000
507 1  19.00850000  16.29300000  19.00850000
508 1  19.00850000  19.00850000  16.29300000
509 1  17.65075000  17.65075000  17.65075000
510 1  20.36625000  20.36625000  17.65075000
511 1  17.65075000  20.36625000  20.36625000
512 1  20.36625000  17.65075000  20.36625000
513 1  21.72400000   0.00000000   0.00000000
514 1  21.72400000   2.71550000   2.71550000
515 1  24.43950000   0.00000000   2.71550000
516 1  24.43950000   2.71550000   0.00000000
517 1  23.08175000   1.35775000   1.35775000
518 1  25.79725000   4.07325000   1.35775000
519 1  23.08175000   4.07325000   4.07325000
520 1  25.79725000   1.35775000   4.07325000
521 1  21.72400000   0.00000000   5.43100000
522 1  21.72400000   2.71550000   8.14650000
523 1  24.43950000   0.00000000   8.14650000
524 1  24.43950000   2.71550000   5.43100000
525 1  23.08175000   1.35775000   6.78875000
526 1  25.79725000   4.07325000   6.78875000
527 1  23.08175000   4.07325000   9.50425000
528 1  25.79725000   1.35775000   9.50425000
529 1  21.72400000   0.00000000  10.86200000
530 1  21.72400000   2.71550000  13.57750000
531 1  24.43950000   0.00000000  13.57750000
532 1  24.43950000   2.71550000  10.86200000
533 1  23.08175000   1.35775000  12.21975000
534 1  25.79725000   4.07325000  12.21975000
535 1  23.08175000   4.07325000  14.93525000
536 1  25.79725000   1.35775000  14.93525000
537 1  21.72400000   0.00000000  16.29300000
538 1  21.72400000   2.71550000  19.00850000
539 1  24.43950000   0.00000000  19.00850000
540 1  24.43950000   2.71550000  16.29300000
541 1  23.08175000   1.35775000  17.65075000
542 1  25.79725000   4.07325000  17.65075000
543 1  23.08175000   4.07325000  20.36625000
544 1  25.79725000   1.35775000  20.36625000
545 1  21.72400000   5.43100000   0.00000000
546 1  21.72400000   8.14650000   2.71550000
547 1  24.43950000   5.43100000   2.71550000
548 1  24.43950000   8.14650000   0.00000000
549 1  23.08175000   6.78875000   1.35775000
550 1  25.79725000   9.50425000   1.35775000
551 1  23.08175000   9.50425000   4.07325000
552 1  25.79725000   6.78875000   4.07325000
553 1  21.72400000   5.43100000   5.43100000
554 1  21.72400000   8.14650000   8.14650000
555 1  24.43950000   5.43100000   8.14650000
556 1  24.43950000   8.14650000   5.43100000
557 1  23.08175000   6.78875000   6.78875000
558 1  25.79725000   9.50425000   6.78875000
559 1  23.08175000   9.50425000   9.50425000
560 1  25.79725000   6.78875000   9.50425000
561 1  21.72400000   5.43100000  10.86200000
562 1  21.72400000   8.14650000  13.57750000
563 1  24.43950000   5.43100000  13.57750000
564 1  24.43950000   8.14650000  10.86200000
565 1  23.08175000   6.78875000  12.21975000
566 1  25.79725000   9.50425000  12.21975000
567 1  23.08175000   9.50425000  14.93525000
568 1  25.79725000   6.78875000  14.93525000
569 1  21.72400000   5.43100000  16.29300000
570 1  21.72400000   8.14650000  19.00850000
571 1  24.43950000   5.43100000  19.00850000
572 1  24.43950000   8.14650000  16.29300000
573 1  23.08175000   6.78875000  17.65075000
574 1  25.79725000   9.50425000  17.65075000
575 1  23.08175000   9.50425000  20.36625000
576 1  25.79725000   6.78875000  20.36625000
577 1  21.72400000  10.86200000   0.00000000
578 1  21.72400000  13.57750000   2.71550000
579 1  24.43950000  10.86200000   2.71550000
580 1  24.43950000  13.57750000   0.00000000
581 1  23.08175000  12.21975000   1.35775000
582 1  25.79725000  14.93525000   1.35775000
583 1  23.08175000  14.93525000   4.07325000
584 1  25.79725000  12.21975000   4.07325000
585 1  21.72400000  10.86200000   5.43100000
586 1  21.72400000  13.57750000   8.14650000
587 1  24.43950000  10.86200000   8.14650000
588 1  24.43950000  13.57750000   5.43100000
589 1  23.08175000  12.21975000   6.78875000
590 1  25.79725000  14.93525000   6.78875000
591 1  23.08175000  14.93525000   9.50425000
592 1  25.79725000  12.21975000   9.50425000
593 1  21.72400000  10.86200000  10.86200000
594 1  21.72400000  13.57750000  13.57750000
595 1  24.43950000  10.86200000  13.57750000
596 1  24.43950000  13.57750000  10.86200000
597 1  23.08175000  12.21975000  12.21975000
598 1  25.79725000  14.93525000  12.21975000
599 1  23.08175000  14.93525000  14.93525000
600 1  25.79725000  12.21975000  14.93525000
601 1  21.72400000  10.86200000  16.29300000
602 1  21.72400000  13.57750000  19.00850000
603 1  24.43950000  10.86200000  19.00850000
604 1  24.43950000  13.57750000  16.29300000
605 1  23.08175000  12.21975000  17.65075000
606 1  25.79725000  14.93525000  17.65075000
607 1  23.08175000  14.93525000  20.36625000
608 1  25.79725000  12.21975000  20.36625000
609 1  21.72400000  16.29300000   0.00000000
610 1  21.72400000  19.00850000   2.71550000
611 1  24.43950000  16.29300000   2.71550000
612 1  24.43950000  19.00850000   0.00000000
613 1  23.08175000  17.65075000   1.35775000
614 1  25.79725000  20.36625000   1.35775000
615 1  23.08175000  20.36625000   4.07325000
616 1  25.79725000  17.65075000   4.07325000
617 1  21.72400000  16.29300000   5.43100000
618 1  21.72400000  19.00850000   8.14650000
619 1  24.43950000  16.29300000   8.14650000
620 1  24.43950000  19.00850000   5.43100000
621 1  23.08175000  17.65075000   6.78875000
622 1  25.79725000  20.36625000   6.78875000
623 1  23.08175000  20.36625000   9.50425000
624 1  25.79725000  17.65075000   9.50425000
625 1  21.72400000  16.29300000  10.86200000
626 1  21.72400000  19.00850000  13.57750000
627 1  24.43950000  16.29300000  13.57750000
628 1  24.43950000  19.00850000  10.86200000
629 1  23.08175000  17.65075000  12.21975000
630 1  25.79725000  20.36625000  12.21975000
631 1  23.08175000  20.36625000  14.93525000
632 1  25.79725000  17.65075000  14.93525000
633 1  21.72400000  16.29300000  16.29300000
634 1  21.72400000  19.00850000  19.00850000
635 1  24.43950000  16.29300000  19.00850000
636 1  24.43950000  19.00850000  16.29300000
637 1  23.08175000  17.65075000  17.65075000
638 1  25.79725000  20.36625000  17.65075000
639 1  23.08175000  20.36625000  20.36625000
640 1  25.79725000  17.65075000  20.36625000
641 1  27.15500000   0.00000000   0.00000000
642 1  27.15500000   2.71550000   2.71550000
643 1  29.87050000   0.00000000   2.71550000
644 1  29.87050000   2.71550000   0.00000000
645 1  28.51275000   1.35775000   1.35775000
646 1  31.22825000   4.07325000   1.35775000
647 1  28.51275000   4.07325000   4.07325000
648 1  31.22825000   1.35775000   4.07325000
649 1  27.15500000   0.00000000   5.43100000
650 1  27.15500000   2.71550000   8.14650000
651 1  29.87050000   0.00000000   8.14650000
652 1  29.87050000   2.71550000   5.43100000
653 1  28.51275000   1.35775000   6.78875000
654 1  31.22825000   4.07325000   6.78875000
655 1  28.51275000   4.07325000   9.50425000
656 1  31.22825000   1.35775000   9.50425000
657 1  27.15500000   0.00000000  10.86200000
658 1  27.15500000   2.71550000  13.57750000
659 1  29.87050000   0.00000000  13.57750000
660 1  29.87050000   2.71550000  10.86200000
661 1  28.51275000   1.35775000  12.21975000
662 1  31.22825000   4.07325000  12.21975000
663 1  28.51275000   4.07325000  14.93525000
664 1  31.22825000   1.35775000  14.93525000
665 1  27.15500000   0.00000000  16.29300000