 LAMMPS Description
 
 16384 atoms
 2 atom types
 
  0.0000000E+00   173.792000000000      xlo xhi
  0.0000000E+00   43.4480000000000      ylo yhi
  0.0000000E+00   43.4480000000000      zlo zhi
 
 Masses
 
           1   28.0855000000000       # Si 
           2   72.6400000000000       # Ge 
 
 Atoms
 
         1         2 100.4730   0.0000  13.5770
         2         2 100.4730   0.0000  19.0080
         3         2 100.4730   0.0000  24.4390
         4         2 100.4730   0.0000   2.7150
         5         2 100.4730   0.0000  29.8700
         6         2 100.4730   0.0000  35.3010
         7         2 100.4730   0.0000  40.7320
         8         2 100.4730   0.0000   8.1460
         9         2 100.4730  10.8620  13.5770
        10         2 100.4730  10.8620  19.0080
        11         2 100.4730  10.8620  24.4390
        12         2 100.4730  10.8620   2.7150
        13         2 100.4730  10.8620  29.8700
        14         2 100.4730  10.8620  35.3010
        15         2 100.4730  10.8620  40.7320
        16         2 100.4730  10.8620   8.1460
        17         2 100.4730  13.5770   0.0000
        18         2 100.4730  13.5770  10.8620
        19         2 100.4730  13.5770  16.2930
        20         2 100.4730  13.5770  21.7240
        21         2 100.4730  13.5770  27.1550
        22         2 100.4730  13.5770  32.5860
        23         2 100.4730  13.5770  38.0170
        24         2 100.4730  13.5770   5.4310
        25         2 100.4730  16.2930  13.5770
        26         2 100.4730  16.2930  19.0080
        27         2 100.4730  16.2930  24.4390
        28         2 100.4730  16.2930   2.7150
        29         2 100.4730  16.2930  29.8700
        30         2 100.4730  16.2930  35.3010
        31         2 100.4730  16.2930  40.7320
        32         2 100.4730  16.2930   8.1460
        33         2 100.4730  19.0080   0.0000
        34         2 100.4730  19.0080  10.8620
        35         2 100.4730  19.0080  16.2930
        36         2 100.4730  19.0080  21.7240
        37         2 100.4730  19.0080  27.1550
        38         2 100.4730  19.0080  32.5860
        39         2 100.4730  19.0080  38.0170
        40         2 100.4730  19.0080   5.4310
        41         2 100.4730  21.7240  13.5770
        42         2 100.4730  21.7240  19.0080
        43         2 100.4730  21.7240  24.4390
        44         2 100.4730  21.7240   2.7150
        45         2 100.4730  21.7240  29.8700
        46         2 100.4730  21.7240  35.3010
        47         2 100.4730  21.7240  40.7320
        48         2 100.4730  21.7240   8.1460
        49         2 100.4730  24.4390   0.0000
        50         2 100.4730  24.4390  10.8620
        51         2 100.4730  24.4390  16.2930
        52         2 100.4730  24.4390  21.7240
        53         2 100.4730  24.4390  27.1550
        54         2 100.4730  24.4390  32.5860
        55         2 100.4730  24.4390  38.0170
        56         2 100.4730  24.4390   5.4310
        57         2 100.4730   2.7150   0.0000
        58         2 100.4730   2.7150  10.8620
        59         2 100.4730   2.7150  16.2930
        60         2 100.4730   2.7150  21.7240
        61         2 100.4730   2.7150  27.1550
        62         2 100.4730   2.7150  32.5860
        63         2 100.4730   2.7150  38.0170
        64         2 100.4730   2.7150   5.4310
        65         2 100.4730  27.1550  13.5770
        66         2 100.4730  27.1550  19.0080
        67         2 100.4730  27.1550  24.4390
        68         2 100.4730  27.1550   2.7150
        69         2 100.4730  27.1550  29.8700
        70         2 100.4730  27.1550  35.3010
        71         2 100.4730  27.1550  40.7320
        72         2 100.4730  27.1550   8.1460
        73         2 100.4730  29.8700   0.0000
        74         2 100.4730  29.8700  10.8620
        75         2 100.4730  29.8700  16.2930
        76         2 100.4730  29.8700  21.7240
        77         2 100.4730  29.8700  27.1550
        78         2 100.4730  29.8700  32.5860
        79         2 100.4730  29.8700  38.0170
        80         2 100.4730  29.8700   5.4310
        81         2 100.4730  32.5860  13.5770
        82         2 100.4730  32.5860  19.0080
        83         2 100.4730  32.5860  24.4390
        84         2 100.4730  32.5860   2.7150
        85         2 100.4730  32.5860  29.8700
        86         2 100.4730  32.5860  35.3010
        87         2 100.4730  32.5860  40.7320
        88         2 100.4730  32.5860   8.1460
        89         2 100.4730  35.3010   0.0000
        90         2 100.4730  35.3010  10.8620
        91         2 100.4730  35.3010  16.2930
        92         2 100.4730  35.3010  21.7240
        93         2 100.4730  35.3010  27.1550
        94         2 100.4730  35.3010  32.5860
        95         2 100.4730  35.3010  38.0170
        96         2 100.4730  35.3010   5.4310
        97         2 100.4730  38.0170  13.5770
        98         2 100.4730  38.0170  19.0080
        99         2 100.4730  38.0170  24.4390
       100         2 100.4730  38.0170   2.7150
       101         2 100.4730  38.0170  29.8700
       102         2 100.4730  38.0170  35.3010
       103         2 100.4730  38.0170  40.7320
       104         2 100.4730  38.0170   8.1460
       105         2 100.4730  40.7320   0.0000
       106         2 100.4730  40.7320  10.8620
       107         2 100.4730  40.7320  16.2930
       108         2 100.4730  40.7320  21.7240
       109         2 100.4730  40.7320  27.1550
       110         2 100.4730  40.7320  32.5860
       111         2 100.4730  40.7320  38.0170
       112         2 100.4730  40.7320   5.4310
       113         2 100.4730   5.4310  13.5770
       114         2 100.4730   5.4310  19.0080
       115         2 100.4730   5.4310  24.4390
       116         2 100.4730   5.4310   2.7150
       117         2 100.4730   5.4310  29.8700
       118         2 100.4730   5.4310  35.3010
       119         2 100.4730   5.4310  40.7320
       120         2 100.4730   5.4310   8.1460
       121         2 100.4730   8.1460   0.0000
       122         2 100.4730   8.1460  10.8620
       123         2 100.4730   8.1460  16.2930
       124         2 100.4730   8.1460  21.7240
       125         2 100.4730   8.1460  27.1550
       126         2 100.4730   8.1460  32.5860
       127         2 100.4730   8.1460  38.0170
       128         2 100.4730   8.1460   5.4310
       129         2 101.8310  12.2200  14.9350
       130         2 101.8310  12.2200  20.3660
       131         2 101.8310  12.2200  25.7970
       132         2 101.8310  12.2200  31.2280
       133         2 101.8310  12.2200  36.6590
       134         2 101.8310  12.2200   4.0730
       135         2 101.8310  12.2200  42.0900
       136         2 101.8310  12.2200   9.5040
       137         2 101.8310   1.3580  14.9350
       138         2 101.8310   1.3580  20.3660
       139         2 101.8310   1.3580  25.7970
       140         2 101.8310   1.3580  31.2280
       141         2 101.8310   1.3580  36.6590
       142         2 101.8310   1.3580   4.0730
       143         2 101.8310   1.3580  42.0900
       144         2 101.8310   1.3580   9.5040
       145         2 101.8310  14.9350  12.2200
       146         2 101.8310  14.9350   1.3580
       147         2 101.8310  14.9350  17.6510
       148         2 101.8310  14.9350  23.0820
       149         2 101.8310  14.9350  28.5130
       150         2 101.8310  14.9350  33.9440
       151         2 101.8310  14.9350  39.3750
       152         2 101.8310  14.9350   6.7890
       153         2 101.8310  17.6510  14.9350
       154         2 101.8310  17.6510  20.3660
       155         2 101.8310  17.6510  25.7970
       156         2 101.8310  17.6510  31.2280
       157         2 101.8310  17.6510  36.6590
       158         2 101.8310  17.6510   4.0730
       159         2 101.8310  17.6510  42.0900
       160         2 101.8310  17.6510   9.5040
       161         2 101.8310  20.3660  12.2200
       162         2 101.8310  20.3660   1.3580
       163         2 101.8310  20.3660  17.6510
       164         2 101.8310  20.3660  23.0820
       165         2 101.8310  20.3660  28.5130
       166         2 101.8310  20.3660  33.9440
       167         2 101.8310  20.3660  39.3750
       168         2 101.8310  20.3660   6.7890
       169         2 101.8310  23.0820  14.9350
       170         2 101.8310  23.0820  20.3660
       171         2 101.8310  23.0820  25.7970
       172         2 101.8310  23.0820  31.2280
       173         2 101.8310  23.0820  36.6590
       174         2 101.8310  23.0820   4.0730
       175         2 101.8310  23.0820  42.0900
       176         2 101.8310  23.0820   9.5040
       177         2 101.8310  25.7970  12.2200
       178         2 101.8310  25.7970   1.3580
       179         2 101.8310  25.7970  17.6510
       180         2 101.8310  25.7970  23.0820
       181         2 101.8310  25.7970  28.5130
       182         2 101.8310  25.7970  33.9440
       183         2 101.8310  25.7970  39.3750
       184         2 101.8310  25.7970   6.7890
       185         2 101.8310  28.5130  14.9350
       186         2 101.8310  28.5130  20.3660
       187         2 101.8310  28.5130  25.7970
       188         2 101.8310  28.5130  31.2280
       189         2 101.8310  28.5130  36.6590
       190         2 101.8310  28.5130   4.0730
       191         2 101.8310  28.5130  42.0900
       192         2 101.8310  28.5130   9.5040
       193         2 101.8310  31.2280  12.2200
       194         2 101.8310  31.2280   1.3580
       195         2 101.8310  31.2280  17.6510
       196         2 101.8310  31.2280  23.0820
       197         2 101.8310  31.2280  28.5130
       198         2 101.8310  31.2280  33.9440
       199         2 101.8310  31.2280  39.3750
       200         2 101.8310  31.2280   6.7890
       201         2 101.8310  33.9440  14.9350
       202         2 101.8310  33.9440  20.3660
       203         2 101.8310  33.9440  25.7970
       204         2 101.8310  33.9440  31.2280
       205         2 101.8310  33.9440  36.6590
       206         2 101.8310  33.9440   4.0730
       207         2 101.8310  33.9440  42.0900
       208         2 101.8310  33.9440   9.5040
       209         2 101.8310  36.6590  12.2200
       210         2 101.8310  36.6590   1.3580
       211         2 101.8310  36.6590  17.6510
       212         2 101.8310  36.6590  23.0820
       213         2 101.8310  36.6590  28.5130
       214         2 101.8310  36.6590  33.9440
       215         2 101.8310  36.6590  39.3750
       216         2 101.8310  36.6590   6.7890
       217         2 101.8310  39.3750  14.9350
       218         2 101.8310  39.3750  20.3660
       219         2 101.8310  39.3750  25.7970
       220         2 101.8310  39.3750  31.2280
       221         2 101.8310  39.3750  36.6590
       222         2 101.8310  39.3750   4.0730
       223         2 101.8310  39.3750  42.0900
       224         2 101.8310  39.3750   9.5040
       225         2 101.8310   4.0730  12.2200
       226         2 101.8310   4.0730   1.3580
       227         2 101.8310   4.0730  17.6510
       228         2 101.8310   4.0730  23.0820
       229         2 101.8310   4.0730  28.5130
       230         2 101.8310   4.0730  33.9440
       231         2 101.8310   4.0730  39.3750
       232         2 101.8310   4.0730   6.7890
       233         2 101.8310  42.0900  12.2200
       234         2 101.8310  42.0900   1.3580
       235         2 101.8310  42.0900  17.6510
       236         2 101.8310  42.0900  23.0820
       237         2 101.8310  42.0900  28.5130
       238         2 101.8310  42.0900  33.9440
       239         2 101.8310  42.0900  39.3750
       240         2 101.8310  42.0900   6.7890
       241         2 101.8310   6.7890  14.9350
       242         2 101.8310   6.7890  20.3660
       243         2 101.8310   6.7890  25.7970
       244         2 101.8310   6.7890  31.2280
       245         2 101.8310   6.7890  36.6590
       246         2 101.8310   6.7890   4.0730
       247         2 101.8310   6.7890  42.0900
       248         2 101.8310   6.7890   9.5040
       249         2 101.8310   9.5040  12.2200
       250         2 101.8310   9.5040   1.3580
       251         2 101.8310   9.5040  17.6510
       252         2 101.8310   9.5040  23.0820
       253         2 101.8310   9.5040  28.5130
       254         2 101.8310   9.5040  33.9440
       255         2 101.8310   9.5040  39.3750
       256         2 101.8310   9.5040   6.7890
       257         2 103.1890   0.0000   0.0000
       258         2 103.1890   0.0000  10.8620
       259         2 103.1890   0.0000  16.2930
       260         2 103.1890   0.0000  21.7240
       261         2 103.1890   0.0000  27.1550
       262         2 103.1890   0.0000  32.5860
       263         2 103.1890   0.0000  38.0170
       264         2 103.1890   0.0000   5.4310
       265         2 103.1890  10.8620   0.0000
       266         2 103.1890  10.8620  10.8620
       267         2 103.1890  10.8620  16.2930
       268         2 103.1890  10.8620  21.7240
       269         2 103.1890  10.8620  27.1550
       270         2 103.1890  10.8620  32.5860
       271         2 103.1890  10.8620  38.0170
       272         2 103.1890  10.8620   5.4310
       273         2 103.1890  13.5770  13.5770
       274         2 103.1890  13.5770  19.0080
       275         2 103.1890  13.5770  24.4390
       276         2 103.1890  13.5770   2.7150
       277         2 103.1890  13.5770  29.8700
       278         2 103.1890  13.5770  35.3010
       279         2 103.1890  13.5770  40.7320
       280         2 103.1890  13.5770   8.1460
       281         2 103.1890  16.2930   0.0000
       282         2 103.1890  16.2930  10.8620
       283         2 103.1890  16.2930  16.2930
       284         2 103.1890  16.2930  21.7240
       285         2 103.1890  16.2930  27.1550
       286         2 103.1890  16.2930  32.5860
       287         2 103.1890  16.2930  38.0170
       288         2 103.1890  16.2930   5.4310
       289         2 103.1890  19.0080  13.5770
       290         2 103.1890  19.0080  19.0080
       291         2 103.1890  19.0080  24.4390
       292         2 103.1890  19.0080   2.7150
       293         2 103.1890  19.0080  29.8700
       294         2 103.1890  19.0080  35.3010
       295         2 103.1890  19.0080  40.7320
       296         2 103.1890  19.0080   8.1460
       297         2 103.1890  21.7240   0.0000
       298         2 103.1890  21.7240  10.8620
       299         2 103.1890  21.7240  16.2930
       300         2 103.1890  21.7240  21.7240
       301         2 103.1890  21.7240  27.1550
       302         2 103.1890  21.7240  32.5860
       303         2 103.1890  21.7240  38.0170
       304         2 103.1890  21.7240   5.4310
       305         2 103.1890  24.4390  13.5770
       306         2 103.1890  24.4390  19.0080
       307         2 103.1890  24.4390  24.4390
       308         2 103.1890  24.4390   2.7150
       309         2 103.1890  24.4390  29.8700
       310         2 103.1890  24.4390  35.3010
       311         2 103.1890  24.4390  40.7320
       312         2 103.1890  24.4390   8.1460
       313         2 103.1890   2.7150  13.5770
       314         2 103.1890   2.7150  19.0080
       315         2 103.1890   2.7150  24.4390
       316         2 103.1890   2.7150   2.7150
       317         2 103.1890   2.7150  29.8700
       318         2 103.1890   2.7150  35.3010
       319         2 103.1890   2.7150  40.7320
       320         2 103.1890   2.7150   8.1460
       321         2 103.1890  27.1550   0.0000
       322         2 103.1890  27.1550  10.8620
       323         2 103.1890  27.1550  16.2930
       324         2 103.1890  27.1550  21.7240
       325         2 103.1890  27.1550  27.1550
       326         2 103.1890  27.1550  32.5860
       327         2 103.1890  27.1550  38.0170
       328         2 103.1890  27.1550   5.4310
       329         2 103.1890  29.8700  13.5770
       330         2 103.1890  29.8700  19.0080
       331         2 103.1890  29.8700  24.4390
       332         2 103.1890  29.8700   2.7150
       333         2 103.1890  29.8700  29.8700
       334         2 103.1890  29.8700  35.3010
       335         2 103.1890  29.8700  40.7320
       336         2 103.1890  29.8700   8.1460
       337         2 103.1890  32.5860   0.0000
       338         2 103.1890  32.5860  10.8620
       339         2 103.1890  32.5860  16.2930
       340         2 103.1890  32.5860  21.7240
       341         2 103.1890  32.5860  27.1550
       342         2 103.1890  32.5860  32.5860
       343         2 103.1890  32.5860  38.0170
       344         2 103.1890  32.5860   5.4310
       345         2 103.1890  35.3010  13.5770
       346         2 103.1890  35.3010  19.0080
       347         2 103.1890  35.3010  24.4390
       348         2 103.1890  35.3010   2.7150
       349         2 103.1890  35.3010  29.8700
       350         2 103.1890  35.3010  35.3010
       351         2 103.1890  35.3010  40.7320
       352         2 103.1890  35.3010   8.1460
       353         2 103.1890  38.0170   0.0000
       354         2 103.1890  38.0170  10.8620
       355         2 103.1890  38.0170  16.2930
       356         2 103.1890  38.0170  21.7240
       357         2 103.1890  38.0170  27.1550
       358         2 103.1890  38.0170  32.5860
       359         2 103.1890  38.0170  38.0170
       360         2 103.1890  38.0170   5.4310
       361         2 103.1890  40.7320  13.5770
       362         2 103.1890  40.7320  19.0080
       363         2 103.1890  40.7320  24.4390
       364         2 103.1890  40.7320   2.7150
       365         2 103.1890  40.7320  29.8700
       366         2 103.1890  40.7320  35.3010
       367         2 103.1890  40.7320  40.7320
       368         2 103.1890  40.7320   8.1460
       369         2 103.1890   5.4310   0.0000
       370         2 103.1890   5.4310  10.8620
       371         2 103.1890   5.4310  16.2930
       372         2 103.1890   5.4310  21.7240
       373         2 103.1890   5.4310  27.1550
       374         2 103.1890   5.4310  32.5860
       375         2 103.1890   5.4310  38.0170
       376         2 103.1890   5.4310   5.4310
       377         2 103.1890   8.1460  13.5770
       378         2 103.1890   8.1460  19.0080
       379         2 103.1890   8.1460  24.4390
       380         2 103.1890   8.1460   2.7150
       381         2 103.1890   8.1460  29.8700
       382         2 103.1890   8.1460  35.3010
       383         2 103.1890   8.1460  40.7320
       384         2 103.1890   8.1460   8.1460
       385         2 104.5470  12.2200  12.2200
       386         2 104.5470  12.2200   1.3580
       387         2 104.5470  12.2200  17.6510
       388         2 104.5470  12.2200  23.0820
       389         2 104.5470  12.2200  28.5130
       390         2 104.5470  12.2200  33.9440
       391         2 104.5470  12.2200  39.3750
       392         2 104.5470  12.2200   6.7890
       393         2 104.5470   1.3580  12.2200
       394         2 104.5470   1.3580   1.3580
       395         2 104.5470   1.3580  17.6510
       396         2 104.5470   1.3580  23.0820
       397         2 104.5470   1.3580  28.5130
       398         2 104.5470   1.3580  33.9440
       399         2 104.5470   1.3580  39.3750
       400         2 104.5470   1.3580   6.7890
       401         2 104.5470  14.9350  14.9350
       402         2 104.5470  14.9350  20.3660
       403         2 104.5470  14.9350  25.7970
       404         2 104.5470  14.9350  31.2280
       405         2 104.5470  14.9350  36.6590
       406         2 104.5470  14.9350   4.0730
       407         2 104.5470  14.9350  42.0900
       408         2 104.5470  14.9350   9.5040
       409         2 104.5470  17.6510  12.2200
       410         2 104.5470  17.6510   1.3580
       411         2 104.5470  17.6510  17.6510
       412         2 104.5470  17.6510  23.0820
       413         2 104.5470  17.6510  28.5130
       414         2 104.5470  17.6510  33.9440
       415         2 104.5470  17.6510  39.3750
       416         2 104.5470  17.6510   6.7890
       417         2 104.5470  20.3660  14.9350
       418         2 104.5470  20.3660  20.3660
       419         2 104.5470  20.3660  25.7970
       420         2 104.5470  20.3660  31.2280
       421         2 104.5470  20.3660  36.6590
       422         2 104.5470  20.3660   4.0730
       423         2 104.5470  20.3660  42.0900
       424         2 104.5470  20.3660   9.5040
       425         2 104.5470  23.0820  12.2200
       426         2 104.5470  23.0820   1.3580
       427         2 104.5470  23.0820  17.6510
       428         2 104.5470  23.0820  23.0820
       429         2 104.5470  23.0820  28.5130
       430         2 104.5470  23.0820  33.9440
       431         2 104.5470  23.0820  39.3750
       432         2 104.5470  23.0820   6.7890
       433         2 104.5470  25.7970  14.9350
       434         2 104.5470  25.7970  20.3660
       435         2 104.5470  25.7970  25.7970
       436         2 104.5470  25.7970  31.2280
       437         2 104.5470  25.7970  36.6590
       438         2 104.5470  25.7970   4.0730
       439         2 104.5470  25.7970  42.0900
       440         2 104.5470  25.7970   9.5040
       441         2 104.5470  28.5130  12.2200
       442         2 104.5470  28.5130   1.3580
       443         2 104.5470  28.5130  17.6510
       444         2 104.5470  28.5130  23.0820
       445         2 104.5470  28.5130  28.5130
       446         2 104.5470  28.5130  33.9440
       447         2 104.5470  28.5130  39.3750
       448         2 104.5470  28.5130   6.7890
       449         2 104.5470  31.2280  14.9350
       450         2 104.5470  31.2280  20.3660
       451         2 104.5470  31.2280  25.7970
       452         2 104.5470  31.2280  31.2280
       453         2 104.5470  31.2280  36.6590
       454         2 104.5470  31.2280   4.0730
       455         2 104.5470  31.2280  42.0900
       456         2 104.5470  31.2280   9.5040
       457         2 104.5470  33.9440  12.2200
       458         2 104.5470  33.9440   1.3580
       459         2 104.5470  33.9440  17.6510
       460         2 104.5470  33.9440  23.0820
       461         2 104.5470  33.9440  28.5130
       462         2 104.5470  33.9440  33.9440
       463         2 104.5470  33.9440  39.3750
       464         2 104.5470  33.9440   6.7890
       465         2 104.5470  36.6590  14.9350
       466         2 104.5470  36.6590  20.3660
       467         2 104.5470  36.6590  25.7970
       468         2 104.5470  36.6590  31.2280
       469         2 104.5470  36.6590  36.6590
       470         2 104.5470  36.6590   4.0730
       471         2 104.5470  36.6590  42.0900
       472         2 104.5470  36.6590   9.5040
       473         2 104.5470  39.3750  12.2200
       474         2 104.5470  39.3750   1.3580
       475         2 104.5470  39.3750  17.6510
       476         2 104.5470  39.3750  23.0820
       477         2 104.5470  39.3750  28.5130
       478         2 104.5470  39.3750  33.9440
       479         2 104.5470  39.3750  39.3750
       480         2 104.5470  39.3750   6.7890
       481         2 104.5470   4.0730  14.9350
       482         2 104.5470   4.0730  20.3660
       483         2 104.5470   4.0730  25.7970
       484         2 104.5470   4.0730  31.2280
       485         2 104.5470   4.0730  36.6590
       486         2 104.5470   4.0730   4.0730
       487         2 104.5470   4.0730  42.0900
       488         2 104.5470   4.0730   9.5040
       489         2 104.5470  42.0900  14.9350
       490         2 104.5470  42.0900  20.3660
       491         2 104.5470  42.0900  25.7970
       492         2 104.5470  42.0900  31.2280
       493         2 104.5470  42.0900  36.6590
       494         2 104.5470  42.0900   4.0730
       495         2 104.5470  42.0900  42.0900
       496         2 104.5470  42.0900   9.5040
       497         2 104.5470   6.7890  12.2200
       498         2 104.5470   6.7890   1.3580
       499         2 104.5470   6.7890  17.6510
       500         2 104.5470   6.7890  23.0820
       501         2 104.5470   6.7890  28.5130
       502         2 104.5470   6.7890  33.9440
       503         2 104.5470   6.7890  39.3750
       504         2 104.5470   6.7890   6.7890
       505         2 104.5470   9.5040  14.9350
       506         2 104.5470   9.5040  20.3660
       507         2 104.5470   9.5040  25.7970
       508         2 104.5470   9.5040  31.2280
       509         2 104.5470   9.5040  36.6590
       510         2 104.5470   9.5040   4.0730
       511         2 104.5470   9.5040  42.0900
       512         2 104.5470   9.5040   9.5040
       513         2 105.9040   0.0000  13.5770
       514         2 105.9040   0.0000  19.0080
       515         2 105.9040   0.0000  24.4390
       516         2 105.9040   0.0000   2.7150
       517         2 105.9040   0.0000  29.8700
       518         2 105.9040   0.0000  35.3010
       519         2 105.9040   0.0000  40.7320
       520         2 105.9040   0.0000   8.1460
       521         2 105.9040  10.8620  13.5770
       522         2 105.9040  10.8620  19.0080
       523         2 105.9040  10.8620  24.4390
       524         2 105.9040  10.8620   2.7150
       525         2 105.9040  10.8620  29.8700
       526         2 105.9040  10.8620  35.3010
       527         2 105.9040  10.8620  40.7320
       528         2 105.9040  10.8620   8.1460
       529         2 105.9040  13.5770   0.0000
       530         2 105.9040  13.5770  10.8620
       531         2 105.9040  13.5770  16.2930
       532         2 105.9040  13.5770  21.7240
       533         2 105.9040  13.5770  27.1550
       534         2 105.9040  13.5770  32.5860
       535         2 105.9040  13.5770  38.0170
       536         2 105.9040  13.5770   5.4310
       537         2 105.9040  16.2930  13.5770
       538         2 105.9040  16.2930  19.0080
       539         2 105.9040  16.2930  24.4390
       540         2 105.9040  16.2930   2.7150
       541         2 105.9040  16.2930  29.8700
       542         2 105.9040  16.2930  35.3010
       543         2 105.9040  16.2930  40.7320
       544         2 105.9040  16.2930   8.1460
       545         2 105.9040  19.0080   0.0000
       546         2 105.9040  19.0080  10.8620
       547         2 105.9040  19.0080  16.2930
       548         2 105.9040  19.0080  21.7240
       549         2 105.9040  19.0080  27.1550
       550         2 105.9040  19.0080  32.5860
       551         2 105.9040  19.0080  38.0170
       552         2 105.9040  19.0080   5.4310
       553         2 105.9040  21.7240  13.5770
       554         2 105.9040  21.7240  19.0080
       555         2 105.9040  21.7240  24.4390
       556         2 105.9040  21.7240   2.7150
       557         2 105.9040  21.7240  29.8700
       558         2 105.9040  21.7240  35.3010
       559         2 105.9040  21.7240  40.7320
       560         2 105.9040  21.7240   8.1460
       561         2 105.9040  24.4390   0.0000
       562         2 105.9040  24.4390  10.8620
       563         2 105.9040  24.4390  16.2930
       564         2 105.9040  24.4390  21.7240
       565         2 105.9040  24.4390  27.1550
       566         2 105.9040  24.4390  32.5860
       567         2 105.9040  24.4390  38.0170
       568         2 105.9040  24.4390   5.4310
       569         2 105.9040   2.7150   0.0000
       570         2 105.9040   2.7150  10.8620
       571         2 105.9040   2.7150  16.2930
       572         2 105.9040   2.7150  21.7240
       573         2 105.9040   2.7150  27.1550
       574         2 105.9040   2.7150  32.5860
       575         2 105.9040   2.7150  38.0170
       576         2 105.9040   2.7150   5.4310
       577         2 105.9040  27.1550  13.5770
       578         2 105.9040  27.1550  19.0080
       579         2 105.9040  27.1550  24.4390
       580         2 105.9040  27.1550   2.7150
       581         2 105.9040  27.1550  29.8700
       582         2 105.9040  27.1550  35.3010
       583         2 105.9040  27.1550  40.7320
       584         2 105.9040  27.1550   8.1460
       585         2 105.9040  29.8700   0.0000
       586         2 105.9040  29.8700  10.8620
       587         2 105.9040  29.8700  16.2930
       588         2 105.9040  29.8700  21.7240
       589         2 105.9040  29.8700  27.1550
       590         2 105.9040  29.8700  32.5860
       591         2 105.9040  29.8700  38.0170
       592         2 105.9040  29.8700   5.4310
       593         2 105.9040  32.5860  13.5770
       594         2 105.9040  32.5860  19.0080
       595         2 105.9040  32.5860  24.4390
       596         2 105.9040  32.5860   2.7150
       597         2 105.9040  32.5860  29.8700
       598         2 105.9040  32.5860  35.3010
       599         2 105.9040  32.5860  40.7320
       600         2 105.9040  32.5860   8.1460
       601         2 105.9040  35.3010   0.0000
       602         2 105.9040  35.3010  10.8620
       603         2 105.9040  35.3010  16.2930
       604         2 105.9040  35.3010  21.7240
       605         2 105.9040  35.3010  27.1550