LAMMPS DATA FILE

24000 atoms

2 atom types

-1.31716 314.80124 xlo xhi
-1.31716 51.369240000000005 ylo yhi
-1.31716 51.369240000000005 zlo zhi

Masses

1 39.948
2 159.792

Atoms

1 1 0.0 0.0 0.0
2 1 0.0 0.0 5.26864
3 1 0.0 0.0 10.53728
4 1 0.0 0.0 15.80592
5 1 0.0 0.0 21.07456
6 1 0.0 0.0 26.343200000000003
7 1 0.0 0.0 31.61184
8 1 0.0 0.0 36.880480000000006
9 1 0.0 0.0 42.14912
10 1 0.0 0.0 47.41776
11 1 0.0 2.63432 2.63432
12 1 0.0 2.63432 7.90296
13 1 0.0 2.63432 13.171600000000002
14 1 0.0 2.63432 18.440240000000003
15 1 0.0 2.63432 23.70888
16 1 0.0 2.63432 28.977520000000002
17 1 0.0 2.63432 34.24616
18 1 0.0 2.63432 39.5148
19 1 0.0 2.63432 44.783440000000006
20 1 0.0 2.63432 50.052080000000004
21 1 0.0 5.26864 0.0
22 1 0.0 5.26864 5.26864
23 1 0.0 5.26864 10.53728
24 1 0.0 5.26864 15.80592
25 1 0.0 5.26864 21.07456
26 1 0.0 5.26864 26.343200000000003
27 1 0.0 5.26864 31.61184
28 1 0.0 5.26864 36.880480000000006
29 1 0.0 5.26864 42.14912
30 1 0.0 5.26864 47.41776
31 1 0.0 7.90296 2.63432
32 1 0.0 7.90296 7.90296
33 1 0.0 7.90296 13.171600000000002
34 1 0.0 7.90296 18.440240000000003
35 1 0.0 7.90296 23.70888
36 1 0.0 7.90296 28.977520000000002
37 1 0.0 7.90296 34.24616
38 1 0.0 7.90296 39.5148
39 1 0.0 7.90296 44.783440000000006
40 1 0.0 7.90296 50.052080000000004
41 1 0.0 10.53728 0.0
42 1 0.0 10.53728 5.26864
43 1 0.0 10.53728 10.53728
44 1 0.0 10.53728 15.80592
45 1 0.0 10.53728 21.07456
46 1 0.0 10.53728 26.343200000000003
47 1 0.0 10.53728 31.61184
48 1 0.0 10.53728 36.880480000000006
49 1 0.0 10.53728 42.14912
50 1 0.0 10.53728 47.41776
51 1 0.0 13.171600000000002 2.63432
52 1 0.0 13.171600000000002 7.90296
53 1 0.0 13.171600000000002 13.171600000000002
54 1 0.0 13.171600000000002 18.440240000000003
55 1 0.0 13.171600000000002 23.70888
56 1 0.0 13.171600000000002 28.977520000000002
57 1 0.0 13.171600000000002 34.24616
58 1 0.0 13.171600000000002 39.5148
59 1 0.0 13.171600000000002 44.783440000000006
60 1 0.0 13.171600000000002 50.052080000000004
61 1 0.0 15.80592 0.0
62 1 0.0 15.80592 5.26864
63 1 0.0 15.80592 10.53728
64 1 0.0 15.80592 15.80592
65 1 0.0 15.80592 21.07456
66 1 0.0 15.80592 26.343200000000003
67 1 0.0 15.80592 31.61184
68 1 0.0 15.80592 36.880480000000006
69 1 0.0 15.80592 42.14912
70 1 0.0 15.80592 47.41776
71 1 0.0 18.440240000000003 2.63432
72 1 0.0 18.440240000000003 7.90296
73 1 0.0 18.440240000000003 13.171600000000002
74 1 0.0 18.440240000000003 18.440240000000003
75 1 0.0 18.440240000000003 23.70888
76 1 0.0 18.440240000000003 28.977520000000002
77 1 0.0 18.440240000000003 34.24616
78 1 0.0 18.440240000000003 39.5148
79 1 0.0 18.440240000000003 44.783440000000006
80 1 0.0 18.440240000000003 50.052080000000004
81 1 0.0 21.07456 0.0
82 1 0.0 21.07456 5.26864
83 1 0.0 21.07456 10.53728
84 1 0.0 21.07456 15.80592
85 1 0.0 21.07456 21.07456
86 1 0.0 21.07456 26.343200000000003
87 1 0.0 21.07456 31.61184
88 1 0.0 21.07456 36.880480000000006
89 1 0.0 21.07456 42.14912
90 1 0.0 21.07456 47.41776
91 1 0.0 23.70888 2.63432
92 1 0.0 23.70888 7.90296
93 1 0.0 23.70888 13.171600000000002
94 1 0.0 23.70888 18.440240000000003
95 1 0.0 23.70888 23.70888
96 1 0.0 23.70888 28.977520000000002
97 1 0.0 23.70888 34.24616
98 1 0.0 23.70888 39.5148
99 1 0.0 23.70888 44.783440000000006
100 1 0.0 23.70888 50.052080000000004
101 1 0.0 26.343200000000003 0.0
102 1 0.0 26.343200000000003 5.26864
103 1 0.0 26.343200000000003 10.53728
104 1 0.0 26.343200000000003 15.80592
105 1 0.0 26.343200000000003 21.07456
106 1 0.0 26.343200000000003 26.343200000000003
107 1 0.0 26.343200000000003 31.61184
108 1 0.0 26.343200000000003 36.880480000000006
109 1 0.0 26.343200000000003 42.14912
110 1 0.0 26.343200000000003 47.41776
111 1 0.0 28.977520000000002 2.63432
112 1 0.0 28.977520000000002 7.90296
113 1 0.0 28.977520000000002 13.171600000000002
114 1 0.0 28.977520000000002 18.440240000000003
115 1 0.0 28.977520000000002 23.70888
116 1 0.0 28.977520000000002 28.977520000000002
117 1 0.0 28.977520000000002 34.24616
118 1 0.0 28.977520000000002 39.5148
119 1 0.0 28.977520000000002 44.783440000000006
120 1 0.0 28.977520000000002 50.052080000000004
121 1 0.0 31.61184 0.0
122 1 0.0 31.61184 5.26864
123 1 0.0 31.61184 10.53728
124 1 0.0 31.61184 15.80592
125 1 0.0 31.61184 21.07456
126 1 0.0 31.61184 26.343200000000003
127 1 0.0 31.61184 31.61184
128 1 0.0 31.61184 36.880480000000006
129 1 0.0 31.61184 42.14912
130 1 0.0 31.61184 47.41776
131 1 0.0 34.24616 2.63432
132 1 0.0 34.24616 7.90296
133 1 0.0 34.24616 13.171600000000002
134 1 0.0 34.24616 18.440240000000003
135 1 0.0 34.24616 23.70888
136 1 0.0 34.24616 28.977520000000002
137 1 0.0 34.24616 34.24616
138 1 0.0 34.24616 39.5148
139 1 0.0 34.24616 44.783440000000006
140 1 0.0 34.24616 50.052080000000004
141 1 0.0 36.880480000000006 0.0
142 1 0.0 36.880480000000006 5.26864
143 1 0.0 36.880480000000006 10.53728
144 1 0.0 36.880480000000006 15.80592
145 1 0.0 36.880480000000006 21.07456
146 1 0.0 36.880480000000006 26.343200000000003
147 1 0.0 36.880480000000006 31.61184
148 1 0.0 36.880480000000006 36.880480000000006
149 1 0.0 36.880480000000006 42.14912
150 1 0.0 36.880480000000006 47.41776
151 1 0.0 39.5148 2.63432
152 1 0.0 39.5148 7.90296
153 1 0.0 39.5148 13.171600000000002
154 1 0.0 39.5148 18.440240000000003
155 1 0.0 39.5148 23.70888
156 1 0.0 39.5148 28.977520000000002
157 1 0.0 39.5148 34.24616
158 1 0.0 39.5148 39.5148
159 1 0.0 39.5148 44.783440000000006
160 1 0.0 39.5148 50.052080000000004
161 1 0.0 42.14912 0.0
162 1 0.0 42.14912 5.26864
163 1 0.0 42.14912 10.53728
164 1 0.0 42.14912 15.80592
165 1 0.0 42.14912 21.07456
166 1 0.0 42.14912 26.343200000000003
167 1 0.0 42.14912 31.61184
168 1 0.0 42.14912 36.880480000000006
169 1 0.0 42.14912 42.14912
170 1 0.0 42.14912 47.41776
171 1 0.0 44.783440000000006 2.63432
172 1 0.0 44.783440000000006 7.90296
173 1 0.0 44.783440000000006 13.171600000000002
174 1 0.0 44.783440000000006 18.440240000000003
175 1 0.0 44.783440000000006 23.70888
176 1 0.0 44.783440000000006 28.977520000000002
177 1 0.0 44.783440000000006 34.24616
178 1 0.0 44.783440000000006 39.5148
179 1 0.0 44.783440000000006 44.783440000000006
180 1 0.0 44.783440000000006 50.052080000000004
181 1 0.0 47.41776 0.0
182 1 0.0 47.41776 5.26864
183 1 0.0 47.41776 10.53728
184 1 0.0 47.41776 15.80592
185 1 0.0 47.41776 21.07456
186 1 0.0 47.41776 26.343200000000003
187 1 0.0 47.41776 31.61184
188 1 0.0 47.41776 36.880480000000006
189 1 0.0 47.41776 42.14912
190 1 0.0 47.41776 47.41776
191 1 0.0 50.052080000000004 2.63432
192 1 0.0 50.052080000000004 7.90296
193 1 0.0 50.052080000000004 13.171600000000002
194 1 0.0 50.052080000000004 18.440240000000003
195 1 0.0 50.052080000000004 23.70888
196 1 0.0 50.052080000000004 28.977520000000002
197 1 0.0 50.052080000000004 34.24616
198 1 0.0 50.052080000000004 39.5148
199 1 0.0 50.052080000000004 44.783440000000006
200 1 0.0 50.052080000000004 50.052080000000004
201 1 2.63432 0.0 2.63432
202 1 2.63432 0.0 7.90296
203 1 2.63432 0.0 13.171600000000002
204 1 2.63432 0.0 18.440240000000003
205 1 2.63432 0.0 23.70888
206 1 2.63432 0.0 28.977520000000002
207 1 2.63432 0.0 34.24616
208 1 2.63432 0.0 39.5148
209 1 2.63432 0.0 44.783440000000006
210 1 2.63432 0.0 50.052080000000004
211 1 2.63432 2.63432 0.0
212 1 2.63432 2.63432 5.26864
213 1 2.63432 2.63432 10.53728
214 1 2.63432 2.63432 15.80592
215 1 2.63432 2.63432 21.07456
216 1 2.63432 2.63432 26.343200000000003
217 1 2.63432 2.63432 31.61184
218 1 2.63432 2.63432 36.880480000000006
219 1 2.63432 2.63432 42.14912
220 1 2.63432 2.63432 47.41776
221 1 2.63432 5.26864 2.63432
222 1 2.63432 5.26864 7.90296
223 1 2.63432 5.26864 13.171600000000002
224 1 2.63432 5.26864 18.440240000000003
225 1 2.63432 5.26864 23.70888
226 1 2.63432 5.26864 28.977520000000002
227 1 2.63432 5.26864 34.24616
228 1 2.63432 5.26864 39.5148
229 1 2.63432 5.26864 44.783440000000006
230 1 2.63432 5.26864 50.052080000000004
231 1 2.63432 7.90296 0.0
232 1 2.63432 7.90296 5.26864
233 1 2.63432 7.90296 10.53728
234 1 2.63432 7.90296 15.80592
235 1 2.63432 7.90296 21.07456
236 1 2.63432 7.90296 26.343200000000003
237 1 2.63432 7.90296 31.61184
238 1 2.63432 7.90296 36.880480000000006
239 1 2.63432 7.90296 42.14912
240 1 2.63432 7.90296 47.41776
241 1 2.63432 10.53728 2.63432
242 1 2.63432 10.53728 7.90296
243 1 2.63432 10.53728 13.171600000000002
244 1 2.63432 10.53728 18.440240000000003
245 1 2.63432 10.53728 23.70888
246 1 2.63432 10.53728 28.977520000000002
247 1 2.63432 10.53728 34.24616
248 1 2.63432 10.53728 39.5148
249 1 2.63432 10.53728 44.783440000000006
250 1 2.63432 10.53728 50.052080000000004
251 1 2.63432 13.171600000000002 0.0
252 1 2.63432 13.171600000000002 5.26864
253 1 2.63432 13.171600000000002 10.53728
254 1 2.63432 13.171600000000002 15.80592
255 1 2.63432 13.171600000000002 21.07456
256 1 2.63432 13.171600000000002 26.343200000000003
257 1 2.63432 13.171600000000002 31.61184
258 1 2.63432 13.171600000000002 36.880480000000006
259 1 2.63432 13.171600000000002 42.14912
260 1 2.63432 13.171600000000002 47.41776
261 1 2.63432 15.80592 2.63432
262 1 2.63432 15.80592 7.90296
263 1 2.63432 15.80592 13.171600000000002
264 1 2.63432 15.80592 18.440240000000003
265 1 2.63432 15.80592 23.70888
266 1 2.63432 15.80592 28.977520000000002
267 1 2.63432 15.80592 34.24616
268 1 2.63432 15.80592 39.5148
269 1 2.63432 15.80592 44.783440000000006
270 1 2.63432 15.80592 50.052080000000004
271 1 2.63432 18.440240000000003 0.0
272 1 2.63432 18.440240000000003 5.26864
273 1 2.63432 18.440240000000003 10.53728
274 1 2.63432 18.440240000000003 15.80592
275 1 2.63432 18.440240000000003 21.07456
276 1 2.63432 18.440240000000003 26.343200000000003
277 1 2.63432 18.440240000000003 31.61184
278 1 2.63432 18.440240000000003 36.880480000000006
279 1 2.63432 18.440240000000003 42.14912
280 1 2.63432 18.440240000000003 47.41776
281 1 2.63432 21.07456 2.63432
282 1 2.63432 21.07456 7.90296
283 1 2.63432 21.07456 13.171600000000002
284 1 2.63432 21.07456 18.440240000000003
285 1 2.63432 21.07456 23.70888
286 1 2.63432 21.07456 28.977520000000002
287 1 2.63432 21.07456 34.24616
288 1 2.63432 21.07456 39.5148
289 1 2.63432 21.07456 44.783440000000006
290 1 2.63432 21.07456 50.052080000000004
291 1 2.63432 23.70888 0.0
292 1 2.63432 23.70888 5.26864
293 1 2.63432 23.70888 10.53728
294 1 2.63432 23.70888 15.80592
295 1 2.63432 23.70888 21.07456
296 1 2.63432 23.70888 26.343200000000003
297 1 2.63432 23.70888 31.61184
298 1 2.63432 23.70888 36.880480000000006
299 1 2.63432 23.70888 42.14912
300 1 2.63432 23.70888 47.41776
301 1 2.63432 26.343200000000003 2.63432
302 1 2.63432 26.343200000000003 7.90296
303 1 2.63432 26.343200000000003 13.171600000000002
304 1 2.63432 26.343200000000003 18.440240000000003
305 1 2.63432 26.343200000000003 23.70888
306 1 2.63432 26.343200000000003 28.977520000000002
307 1 2.63432 26.343200000000003 34.24616
308 1 2.63432 26.343200000000003 39.5148
309 1 2.63432 26.343200000000003 44.783440000000006
310 1 2.63432 26.343200000000003 50.052080000000004
311 1 2.63432 28.977520000000002 0.0
312 1 2.63432 28.977520000000002 5.26864
313 1 2.63432 28.977520000000002 10.53728
314 1 2.63432 28.977520000000002 15.80592
315 1 2.63432 28.977520000000002 21.07456
316 1 2.63432 28.977520000000002 26.343200000000003
317 1 2.63432 28.977520000000002 31.61184
318 1 2.63432 28.977520000000002 36.880480000000006
319 1 2.63432 28.977520000000002 42.14912
320 1 2.63432 28.977520000000002 47.41776
321 1 2.63432 31.61184 2.63432
322 1 2.63432 31.61184 7.90296
323 1 2.63432 31.61184 13.171600000000002
324 1 2.63432 31.61184 18.440240000000003
325 1 2.63432 31.61184 23.70888
326 1 2.63432 31.61184 28.977520000000002
327 1 2.63432 31.61184 34.24616
328 1 2.63432 31.61184 39.5148
329 1 2.63432 31.61184 44.783440000000006
330 1 2.63432 31.61184 50.052080000000004
331 1 2.63432 34.24616 0.0
332 1 2.63432 34.24616 5.26864
333 1 2.63432 34.24616 10.53728
334 1 2.63432 34.24616 15.80592
335 1 2.63432 34.24616 21.07456
336 1 2.63432 34.24616 26.343200000000003
337 1 2.63432 34.24616 31.61184
338 1 2.63432 34.24616 36.880480000000006
339 1 2.63432 34.24616 42.14912
340 1 2.63432 34.24616 47.41776
341 1 2.63432 36.880480000000006 2.63432
342 1 2.63432 36.880480000000006 7.90296
343 1 2.63432 36.880480000000006 13.171600000000002
344 1 2.63432 36.880480000000006 18.440240000000003
345 1 2.63432 36.880480000000006 23.70888
346 1 2.63432 36.880480000000006 28.977520000000002
347 1 2.63432 36.880480000000006 34.24616
348 1 2.63432 36.880480000000006 39.5148
349 1 2.63432 36.880480000000006 44.783440000000006
350 1 2.63432 36.880480000000006 50.052080000000004
351 1 2.63432 39.5148 0.0
352 1 2.63432 39.5148 5.26864
353 1 2.63432 39.5148 10.53728
354 1 2.63432 39.5148 15.80592
355 1 2.63432 39.5148 21.07456
356 1 2.63432 39.5148 26.343200000000003
357 1 2.63432 39.5148 31.61184
358 1 2.63432 39.5148 36.880480000000006
359 1 2.63432 39.5148 42.14912
360 1 2.63432 39.5148 47.41776
361 1 2.63432 42.14912 2.63432
362 1 2.63432 42.14912 7.90296
363 1 2.63432 42.14912 13.171600000000002
364 1 2.63432 42.14912 18.440240000000003
365 1 2.63432 42.14912 23.70888
366 1 2.63432 42.14912 28.977520000000002
367 1 2.63432 42.14912 34.24616
368 1 2.63432 42.14912 39.5148
369 1 2.63432 42.14912 44.783440000000006
370 1 2.63432 42.14912 50.052080000000004
371 1 2.63432 44.783440000000006 0.0
372 1 2.63432 44.783440000000006 5.26864
373 1 2.63432 44.783440000000006 10.53728
374 1 2.63432 44.783440000000006 15.80592
375 1 2.63432 44.783440000000006 21.07456
376 1 2.63432 44.783440000000006 26.343200000000003
377 1 2.63432 44.783440000000006 31.61184
378 1 2.63432 44.783440000000006 36.880480000000006
379 1 2.63432 44.783440000000006 42.14912
380 1 2.63432 44.783440000000006 47.41776
381 1 2.63432 47.41776 2.63432
382 1 2.63432 47.41776 7.90296
383 1 2.63432 47.41776 13.171600000000002
384 1 2.63432 47.41776 18.440240000000003
385 1 2.63432 47.41776 23.70888
386 1 2.63432 47.41776 28.977520000000002
387 1 2.63432 47.41776 34.24616
388 1 2.63432 47.41776 39.5148
389 1 2.63432 47.41776 44.783440000000006
390 1 2.63432 47.41776 50.052080000000004
391 1 2.63432 50.052080000000004 0.0
392 1 2.63432 50.052080000000004 5.26864
393 1 2.63432 50.052080000000004 10.53728
394 1 2.63432 50.052080000000004 15.80592
395 1 2.63432 50.052080000000004 21.07456
396 1 2.63432 50.052080000000004 26.343200000000003
397 1 2.63432 50.052080000000004 31.61184
398 1 2.63432 50.052080000000004 36.880480000000006
399 1 2.63432 50.052080000000004 42.14912
400 1 2.63432 50.052080000000004 47.41776
401 1 5.26864 0.0 0.0
402 1 5.26864 0.0 5.26864
403 1 5.26864 0.0 10.53728
404 1 5.26864 0.0 15.80592
405 1 5.26864 0.0 21.07456
406 1 5.26864 0.0 26.343200000000003
407 1 5.26864 0.0 31.61184
408 1 5.26864 0.0 36.880480000000006
409 1 5.26864 0.0 42.14912
410 1 5.26864 0.0 47.41776
411 1 5.26864 2.63432 2.63432
412 1 5.26864 2.63432 7.90296
413 1 5.26864 2.63432 13.171600000000002
414 1 5.26864 2.63432 18.440240000000003
415 1 5.26864 2.63432 23.70888
416 1 5.26864 2.63432 28.977520000000002
417 1 5.26864 2.63432 34.24616
418 1 5.26864 2.63432 39.5148
419 1 5.26864 2.63432 44.783440000000006
420 1 5.26864 2.63432 50.052080000000004
421 1 5.26864 5.26864 0.0
422 1 5.26864 5.26864 5.26864
423 1 5.26864 5.26864 10.53728
424 1 5.26864 5.26864 15.80592
425 1 5.26864 5.26864 21.07456
426 1 5.26864 5.26864 26.343200000000003
427 1 5.26864 5.26864 31.61184
428 1 5.26864 5.26864 36.880480000000006
429 1 5.26864 5.26864 42.14912
430 1 5.26864 5.26864 47.41776
431 1 5.26864 7.90296 2.63432
432 1 5.26864 7.90296 7.90296
433 1 5.26864 7.90296 13.171600000000002
434 1 5.26864 7.90296 18.440240000000003
435 1 5.26864 7.90296 23.70888
436 1 5.26864 7.90296 28.977520000000002
437 1 5.26864 7.90296 34.24616
438 1 5.26864 7.90296 39.5148
439 1 5.26864 7.90296 44.783440000000006
440 1 5.26864 7.90296 50.052080000000004
441 1 5.26864 10.53728 0.0
442 1 5.26864 10.53728 5.26864
443 1 5.26864 10.53728 10.53728
444 1 5.26864 10.53728 15.80592
445 1 5.26864 10.53728 21.07456
446 1 5.26864 10.53728 26.343200000000003
447 1 5.26864 10.53728 31.61184
448 1 5.26864 10.53728 36.880480000000006
449 1 5.26864 10.53728 42.14912
450 1 5.26864 10.53728 47.41776
451 1 5.26864 13.171600000000002 2.63432
452 1 5.26864 13.171600000000002 7.90296
453 1 5.26864 13.171600000000002 13.171600000000002
454 1 5.26864 13.171600000000002 18.440240000000003
455 1 5.26864 13.171600000000002 23.70888
456 1 5.26864 13.171600000000002 28.977520000000002
457 1 5.26864 13.171600000000002 34.24616
458 1 5.26864 13.171600000000002 39.5148
459 1 5.26864 13.171600000000002 44.783440000000006
460 1 5.26864 13.171600000000002 50.052080000000004
461 1 5.26864 15.80592 0.0
462 1 5.26864 15.80592 5.26864
463 1 5.26864 15.80592 10.53728
464 1 5.26864 15.80592 15.80592
465 1 5.26864 15.80592 21.07456
466 1 5.26864 15.80592 26.343200000000003
467 1 5.26864 15.80592 31.61184
468 1 5.26864 15.80592 36.880480000000006
469 1 5.26864 15.80592 42.14912
470 1 5.26864 15.80592 47.41776
471 1 5.26864 18.440240000000003 2.63432
472 1 5.26864 18.440240000000003 7.90296
473 1 5.26864 18.440240000000003 13.171600000000002
474 1 5.26864 18.440240000000003 18.440240000000003
475 1 5.26864 18.440240000000003 23.70888
476 1 5.26864 18.440240000000003 28.977520000000002
477 1 5.26864 18.440240000000003 34.24616
478 1 5.26864 18.440240000000003 39.5148
479 1 5.26864 18.440240000000003 44.783440000000006
480 1 5.26864 18.440240000000003 50.052080000000004
481 1 5.26864 21.07456 0.0
482 1 5.26864 21.07456 5.26864
483 1 5.26864 21.07456 10.53728
484 1 5.26864 21.07456 15.80592
485 1 5.26864 21.07456 21.07456
486 1 5.26864 21.07456 26.343200000000003
487 1 5.26864 21.07456 31.61184
488 1 5.26864 21.07456 36.880480000000006
489 1 5.26864 21.07456 42.14912
490 1 5.26864 21.07456 47.41776
491 1 5.26864 23.70888 2.63432
492 1 5.26864 23.70888 7.90296
493 1 5.26864 23.70888 13.171600000000002
494 1 5.26864 23.70888 18.440240000000003
495 1 5.26864 23.70888 23.70888
496 1 5.26864 23.70888 28.977520000000002
497 1 5.26864 23.70888 34.24616
498 1 5.26864 23.70888 39.5148
499 1 5.26864 23.70888 44.783440000000006
500 1 5.26864 23.70888 50.052080000000004
501 1 5.26864 26.343200000000003 0.0
502 1 5.26864 26.343200000000003 5.26864
503 1 5.26864 26.343200000000003 10.53728
504 1 5.26864 26.343200000000003 15.80592
505 1 5.26864 26.343200000000003 21.07456
506 1 5.26864 26.343200000000003 26.343200000000003
507 1 5.26864 26.343200000000003 31.61184
508 1 5.26864 26.343200000000003 36.880480000000006
509 1 5.26864 26.343200000000003 42.14912
510 1 5.26864 26.343200000000003 47.41776
511 1 5.26864 28.977520000000002 2.63432
512 1 5.26864 28.977520000000002 7.90296
513 1 5.26864 28.977520000000002 13.171600000000002
514 1 5.26864 28.977520000000002 18.440240000000003
515 1 5.26864 28.977520000000002 23.70888
516 1 5.26864 28.977520000000002 28.977520000000002
517 1 5.26864 28.977520000000002 34.24616
518 1 5.26864 28.977520000000002 39.5148
519 1 5.26864 28.977520000000002 44.783440000000006
520 1 5.26864 28.977520000000002 50.052080000000004
521 1 5.26864 31.61184 0.0
522 1 5.26864 31.61184 5.26864
523 1 5.26864 31.61184 10.53728
524 1 5.26864 31.61184 15.80592
525 1 5.26864 31.61184 21.07456
526 1 5.26864 31.61184 26.343200000000003
527 1 5.26864 31.61184 31.61184
528 1 5.26864 31.61184 36.880480000000006
529 1 5.26864 31.61184 42.14912
530 1 5.26864 31.61184 47.41776
531 1 5.26864 34.24616 2.63432
532 1 5.26864 34.24616 7.90296
533 1 5.26864 34.24616 13.171600000000002
534 1 5.26864 34.24616 18.440240000000003
535 1 5.26864 34.24616 23.70888
536 1 5.26864 34.24616 28.977520000000002
537 1 5.26864 34.24616 34.24616
538 1 5.26864 34.24616 39.5148
539 1 5.26864 34.24616 44.783440000000006
540 1 5.26864 34.24616 50.052080000000004
541 1 5.26864 36.880480000000006 0.0
542 1 5.26864 36.880480000000006 5.26864
543 1 5.26864 36.880480000000006 10.53728
544 1 5.26864 36.880480000000006 15.80592
545 1 5.26864 36.880480000000006 21.07456
546 1 5.26864 36.880480000000006 26.343200000000003
547 1 5.26864 36.880480000000006 31.61184
548 1 5.26864 36.880480000000006 36.880480000000006
549 1 5.26864 36.880480000000006 42.14912
550 1 5.26864 36.880480000000006 47.41776
551 1 5.26864 39.5148 2.63432
552 1 5.26864 39.5148 7.90296
553 1 5.26864 39.5148 13.171600000000002
554 1 5.26864 39.5148 18.440240000000003
555 1 5.26864 39.5148 23.70888
556 1 5.26864 39.5148 28.977520000000002
557 1 5.26864 39.5148 34.24616
558 1 5.26864 39.5148 39.5148
559 1 5.26864 39.5148 44.783440000000006
560 1 5.26864 39.5148 50.052080000000004
561 1 5.26864 42.14912 0.0
562 1 5.26864 42.14912 5.26864
563 1 5.26864 42.14912 10.53728
564 1 5.26864 42.14912 15.80592
565 1 5.26864 42.14912 21.07456
566 1 5.26864 42.14912 26.343200000000003
567 1 5.26864 42.14912 31.61184
568 1 5.26864 42.14912 36.880480000000006
569 1 5.26864 42.14912 42.14912
570 1 5.26864 42.14912 47.41776
571 1 5.26864 44.783440000000006 2.63432
572 1 5.26864 44.783440000000006 7.90296
573 1 5.26864 44.783440000000006 13.171600000000002
574 1 5.26864 44.783440000000006 18.440240000000003
575 1 5.26864 44.783440000000006 23.70888
576 1 5.26864 44.783440000000006 28.977520000000002
577 1 5.26864 44.783440000000006 34.24616
578 1 5.26864 44.783440000000006 39.5148
579 1 5.26864 44.783440000000006 44.783440000000006
580 1 5.26864 44.783440000000006 50.052080000000004
581 1 5.26864 47.41776 0.0
582 1 5.26864 47.41776 5.26864
583 1 5.26864 47.41776 10.53728
584 1 5.26864 47.41776 15.80592
585 1 5.26864 47.41776 21.07456
586 1 5.26864 47.41776 26.343200000000003
587 1 5.26864 47.41776 31.61184
588 1 5.26864 47.41776 36.880480000000006
589 1 5.26864 47.41776 42.14912
590 1 5.26864 47.41776 47.41776
591 1 5.26864 50.052080000000004 2.63432
592 1 5.26864 50.052080000000004 7.90296
593 1 5.26864 50.052080000000004 13.171600000000002
594 1 5.26864 50.052080000000004 18.440240000000003
595 1 5.26864 50.052080000000004 23.70888
596 1 5.26864 50.052080000000004 28.977520000000002
597 1 5.26864 50.052080000000004 34.24616
598 1 5.26864 50.052080000000004 39.5148
599 1 5.26864 50.052080000000004 44.783440000000006
600 1 5.26864 50.052080000000004 50.052080000000004
601 1 7.90296 0.0 2.63432
602 1 7.90296 0.0 7.90296
603 1 7.90296 0.0 13.171600000000002
604 1 7.90296 0.0 18.440240000000003
605 1 7.90296 0.0 23.70888
606 1 7.90296 0.0 28.977520000000002
607 1 7.90296 0.0 34.24616
608 1 7.90296 0.0 39.5148
609 1 7.90296 0.0 44.783440000000006
610 1 7.90296 0.0 50.052080000000004
611 1 7.90296 2.63432 0.0
612 1 7.90296 2.63432 5.26864
613 1 7.90296 2.63432 10.53728
614 1 7.90296 2.63432 15.80592
615 1 7.90296 2.63432 21.07456
616 1 7.90296 2.63432 26.343200000000003
617 1 7.90296 2.63432 31.61184
618 1 7.90296 2.63432 36.880480000000006
619 1 7.90296 2.63432 42.14912
620 1 7.90296 2.63432 47.41776
621 1 7.90296 5.26864 2.63432
622 1 7.90296 5.26864 7.90296
623 1 7.90296 5.26864 13.171600000000002
624 1 7.90296 5.26864 18.440240000000003
625 1 7.90296 5.26864 23.70888
626 1 7.90296 5.26864 28.977520000000002
627 1 7.90296 5.26864 34.24616
628 1 7.90296 5.26864 39.5148
629 1 7.90296 5.26864 44.783440000000006
630 1 7.90296 5.26864 50.052080000000004
631 1 7.90296 7.90296 0.0
632 1 7.90296 7.90296 5.26864
633 1 7.90296 7.90296 10.53728
634 1 7.90296 7.90296 15.80592
635 1 7.90296 7.90296 21.07456
636 1 7.90296 7.90296 26.343200000000003
637 1 7.90296 7.90296 31.61184
638 1 7.90296 7.90296 36.880480000000006
639 1 7.90296 7.90296 42.14912
640 1 7.90296 7.90296 47.41776
641 1 7.90296 10.53728 2.63432
642 1 7.90296 10.53728 7.90296
643 1 7.90296 10.53728 13.171600000000002
644 1 7.90296 10.53728 18.440240000000003
645 1 7.90296 10.53728 23.70888
646 1 7.90296 10.53728 28.977520000000002
647 1 7.90296 10.53728 34.24616
648 1 7.90296 10.53728 39.5148
649 1 7.90296 10.53728 44.783440000000006
650 1 7.90296 10.53728 50.052080000000004
651 1 7.90296 13.171600000000002 0.0
652 1 7.90296 13.171600000000002 5.26864
653 1 7.90296 13.171600000000002 10.53728
654 1 7.90296 13.171600000000002 15.80592
655 1 7.90296 13.171600000000002 21.07456
656 1 7.90296 13.171600000000002 26.343200000000003
657 1 7.90296 13.171600000000002 31.61184
658 1 7.90296 13.171600000000002 36.880480000000006
659 1 7.90296 13.171600000000002 42.14912
660 1 7.90296 13.171600000000002 47.41776
661 1 7.90296 15.80592 2.63432
662 1 7.90296 15.80592 7.90296
663 1 7.90296 15.80592 13.171600000000002
664 1 7.90296 15.80592 18.440240000000003
665 1 7.90296 15.80592 23.70888
666 1 7.90296 15.80592 28.977520000000002
667 1 7.90296 15.80592 34.24616
668 1 7.90296 15.80592 39.5148
669 1 7.90296 15.80592 44.783440000000006
670 1 7.90296 15.80592 50.052080000000004
671 1 7.90296 18.440240000000003 0.0
672 1 7.90296 18.440240000000003 5.26864
673 1 7.90296 18.440240000000003 10.53728
674 1 7.90296 18.440240000000003 15.80592
675 1 7.90296 18.440240000000003 21.07456
676 1 7.90296 18.440240000000003 26.343200000000003
677 1 7.90296 18.440240000000003 31.61184
678 1 7.90296 18.440240000000003 36.880480000000006
679 1 7.90296 18.440240000000003 42.14912
680 1 7.90296 18.440240000000003 47.41776
681 1 7.90296 21.07456 2.63432
682 1 7.90296 21.07456 7.90296
683 1 7.90296 21.07456 13.171600000000002
684 1 7.90296 21.07456 18.440240000000003
685 1 7.90296 21.07456 23.70888
686 1 7.90296 21.07456 28.977520000000002
687 1 7.90296 21.07456 34.24616
688 1 7.90296 21.07456 39.5148
689 1 7.90296 21.07456 44.783440000000006
690 1 7.90296 21.07456 50.052080000000004
691 1 7.90296 23.70888 0.0
692 1 7.90296 23.70888 5.26864
693 1 7.90296 23.70888 10.53728
694 1 7.90296 23.70888 15.80592
695 1 7.90296 23.70888 21.07456
696 1 7.90296 23.70888 26.343200000000003
697 1 7.90296 23.70888 31.61184
698 1 7.90296 23.70888 36.880480000000006
699 1 7.90296 23.70888 42.14912
700 1 7.90296 23.70888 47.41776
701 1 7.90296 26.343200000000003 2.63432
702 1 7.90296 26.343200000000003 7.90296
703 1 7.90296 26.343200000000003 13.171600000000002
704 1 7.90296 26.343200000000003 18.440240000000003
705 1 7.90296 26.343200000000003 23.70888
706 1 7.90296 26.343200000000003 28.977520000000002
707 1 7.90296 26.343200000000003 34.24616
708 1 7.90296 26.343200000000003 39.5148
709 1 7.90296 26.343200000000003 44.783440000000006
710 1 7.90296 26.343200000000003 50.052080000000004
711 1 7.90296 28.977520000000002 0.0
712 1 7.90296 28.977520000000002 5.26864
713 1 7.90296 28.977520000000002 10.53728
714 1 7.90296 28.977520000000002 15.80592
715 1 7.90296 28.977520000000002 21.07456
716 1 7.90296 28.977520000000002 26.343200000000003
717 1 7.90296 28.977520000000002 31.61184
718 1 7.90296 28.977520000000002 36.880480000000006
719 1 7.90296 28.977520000000002 42.14912
720 1 7.90296 28.977520000000002 47.41776
721 1 7.90296 31.61184 2.63432
722 1 7.90296 31.61184 7.90296
723 1 7.90296 31.61184 13.171600000000002
724 1 7.90296 31.61184 18.440240000000003
725 1 7.90296 31.61184 23.70888
726 1 7.90296 31.61184 28.977520000000002
727 1 7.90296 31.61184 34.24616
728 1 7.90296 31.61184 39.5148
729 1 7.90296 31.61184 44.783440000000006
730 1 7.90296 31.61184 50.052080000000004
731 1 7.90296 34.24616 0.0
732 1 7.90296 34.24616 5.26864
733 1 7.90296 34.24616 10.53728
734 1 7.90296 34.24616 15.80592
735 1 7.90296 34.24616 21.07456
736 1 7.90296 34.24616 26.343200000000003
737 1 7.90296 34.24616 31.61184
738 1 7.90296 34.24616 36.880480000000006
739 1 7.90296 34.24616 42.14912
740 1 7.90296 34.24616 47.41776
741 1 7.90296 36.880480000000006 2.63432
742 1 7.90296 36.880480000000006 7.90296
743 1 7.90296 36.880480000000006 13.171600000000002
744 1 7.90296 36.880480000000006 18.440240000000003
745 1 7.90296 36.880480000000006 23.70888
746 1 7.90296 36.880480000000006 28.977520000000002
747 1 7.90296 36.880480000000006 34.24616
748 1 7.90296 36.880480000000006 39.5148
749 1 7.90296 36.880480000000006 44.783440000000006
750 1 7.90296 36.880480000000006 50.052080000000004
751 1 7.90296 39.5148 0.0
752 1 7.90296 39.5148 5.26864
753 1 7.90296 39.5148 10.53728
754 1 7.90296 39.5148 15.80592
755 1 7.90296 39.5148 21.07456
756 1 7.90296 39.5148 26.343200000000003
757 1 7.90296 39.5148 31.61184
758 1 7.90296 39.5148 36.880480000000006
759 1 7.90296 39.5148 42.14912
760 1 7.90296 39.5148 47.41776
761 1 7.90296 42.14912 2.63432
762 1 7.90296 42.14912 7.90296
763 1 7.90296 42.14912 13.171600000000002
764 1 7.90296 42.14912 18.440240000000003
765 1 7.90296 42.14912 23.70888
766 1 7.90296 42.14912 28.977520000000002
767 1 7.90296 42.14912 34.24616
768 1 7.90296 42.14912 39.5148
769 1 7.90296 42.14912 44.783440000000006
770 1 7.90296 42.14912 50.052080000000004
771 1 7.90296 44.783440000000006 0.0
772 1 7.90296 44.783440000000006 5.26864
773 1 7.90296 44.783440000000006 10.53728
774 1 7.90296 44.783440000000006 15.80592
775 1 7.90296 44.783440000000006 21.07456
776 1 7.90296 44.783440000000006 26.343200000000003
777 1 7.90296 44.783440000000006 31.61184
778 1 7.90296 44.783440000000006 36.880480000000006
779 1 7.90296 44.783440000000006 42.14912
780 1 7.90296 44.783440000000006 47.41776
781 1 7.90296 47.41776 2.63432
782 1 7.90296 47.41776 7.90296
783 1 7.90296 47.41776 13.171600000000002
784 1 7.90296 47.41776 18.440240000000003
785 1 7.90296 47.41776 23.70888
786 1 7.90296 47.41776 28.977520000000002
787 1 7.90296 47.41776 34.24616
788 1 7.90296 47.41776 39.5148
789 1 7.90296 47.41776 44.783440000000006
790 1 7.90296 47.41776 50.052080000000004
791 1 7.90296 50.052080000000004 0.0
792 1 7.90296 50.052080000000004 5.26864
793 1 7.90296 50.052080000000004 10.53728
794 1 7.90296 50.052080000000004 15.80592
795 1 7.90296 50.052080000000004 21.07456
796 1 7.90296 50.052080000000004 26.343200000000003
797 1 7.90296 50.052080000000004 31.61184
798 1 7.90296 50.052080000000004 36.880480000000006
799 1 7.90296 50.052080000000004 42.14912
800 1 7.90296 50.052080000000004 47.41776
801 1 10.53728 0.0 0.0
802 1 10.53728 0.0 5.26864
803 1 10.53728 0.0 10.53728
804 1 10.53728 0.0 15.80592
805 1 10.53728 0.0 21.07456
806 1 10.53728 0.0 26.343200000000003
807 1 10.53728 0.0 31.61184
808 1 10.53728 0.0 36.880480000000006