LAMMPS DATA FILE

2048 atoms
2 atom types

-20.0 107.11455866592338 xlo xhi
-0.959532789819 21.3257827898 ylo yhi
-0.93884745842 21.3050974584 zlo zhi

Masses

1 28.0855
2 72.64

Atoms

1 1 0.0 2.5026342449543564 8.04660098462911
2 1 0.025907093882821773 10.836268420082568 -0.3272783055356993
3 1 0.03660326278516259 13.521643861465089 2.4684758601421457
4 1 0.0393156744450641 13.652548783351383 8.166883066559777
5 1 0.04745453090682021 10.787418254117911 5.320007936898054
6 1 0.05067680323341123 8.056838955389379 2.563386039991138
7 1 0.057495526380972606 16.426283103675964 10.905793472202351
8 1 0.06452769766305486 13.644362831714002 19.164417055868064
9 1 0.0715004690615208 16.39629927868085 -0.2765539017210819
10 1 0.08102946377303262 5.313322941677935 -0.24300293538726825
11 1 0.08712911146188447 -0.24988470723596817 5.203569355006855
12 1 0.09030320973447542 19.287835582269466 2.4572855440026045
13 1 0.093166313341578 10.82177812887471 10.890776405889875
14 1 0.09377294641224052 -0.26830935710124165 10.752097102538182
15 1 0.09969074784529283 8.118423832929913 19.199433725101507
16 1 0.10601475858021032 19.232941143023584 13.55227163374028
17 1 0.11344144830028828 5.272818311125423 16.44998610325554
18 1 0.11476977568935214 2.5590711807198265 19.187500107939087
19 1 0.11732814983506677 16.472562133101516 5.201821509306615
20 1 0.11967019994871879 10.842948260905205 16.519212828328637
21 1 0.12290314002584797 19.30841452461869 8.09971101916727
22 1 0.12315644568108057 -0.2324236272912399 -0.30827548874802146
23 1 0.12617045336389582 5.21176359349725 5.29584834487966
24 1 0.13098543943557406 5.4157311458400486 10.748816659336434
25 1 0.13711278542117467 2.627713904502971 13.569600771517234
26 1 0.16083693260371817 16.371120819236303 16.316172210324723
27 1 0.1648888110589552 -0.2493658512665678 16.371030459819554
28 1 0.16942157819454284 7.947798617154608 13.633605722740661
29 1 0.17632146286236178 8.027351129981918 8.080582230797775
30 1 0.17948711081747365 19.21936430950685 19.035126673076874
31 1 0.18294263116584542 2.4983795941004505 2.4854690061015146
32 1 0.20142987670747065 13.544286374834241 13.649340407469293
33 1 1.268901246310896 17.768359794806795 1.1133331470502161
34 1 1.28657720504809 3.9332266862092915 9.499578522015284
35 1 1.3101477322659258 6.660811570999138 17.891071701839486
36 1 1.3362297628243198 12.11702135330812 6.806245517463369
37 1 1.3771521994368991 14.94051500680727 3.7779035839688255
38 1 1.384480132167519 9.402956544092339 9.453568537076155
39 1 1.3970786556893333 1.0008367349910756 17.822808309191768
40 1 1.4002353408888129 1.1750986034515902 12.191024659095554
41 1 1.4028598360809712 9.415729874316025 20.638776243037306
42 1 1.4110047777470318 12.224755817945924 12.160826061250111
43 1 1.4151346274703092 1.0825452763640224 6.706205875919907
44 1 1.416861379851699 12.205638788331141 1.1320359374611284
45 1 1.419366701552022 20.61239914593161 3.86415948632502
46 1 1.4204760325540486 3.872238070286234 20.660726222064493
47 1 1.4215547912305695 20.589844798851615 20.561936396095128
48 1 1.4318602587823528 9.418288853773682 3.930349662539195
49 1 1.4334961076673423 9.45430205339312 15.087322209160527
50 1 1.4389192407337954 20.684967339184322 9.405827834513655
51 1 1.4431178258682447 17.664303507628137 17.762015504674324
52 1 1.4445059907765287 14.998657917300076 9.498686257383453
53 1 1.4475514070334647 6.615671922498473 12.260853057428731
54 1 1.447659051102408 15.02163950231126 20.586060479468294
55 1 1.4535032519544724 6.643626462240542 1.1945786407661638
56 1 1.4642838272544438 20.625624199038747 14.993900014342952
57 1 1.4687351544651432 14.997991249167026 15.03009165833913
58 1 1.474370811059905 1.1282112753175968 1.157857497357501
59 1 1.485345218691175 3.8148019478049453 3.9290966532618747
60 1 1.4877414790155918 3.8976249566679964 15.189792574432825
61 1 1.5086959683712828 6.664351432586065 6.601236702899375
62 1 1.5207907372845397 17.960768040211168 6.8304681049547415
63 1 1.528380714678608 12.163312376963306 17.868286940698564
64 1 1.5517355110751498 17.820510499211796 12.29346672849773
65 1 2.5418405221270084 13.565323245375728 5.309741623857982
66 1 2.6665802195614683 10.8844261220769 13.599634419667082
67 1 2.6667169107156914 5.302327257021882 19.210922733032945
68 1 2.6844031225058322 16.380361964296007 8.125450205806205
69 1 2.6967843411781063 13.590228525654737 -0.2998575467143118
70 1 2.7031464377705574 16.388551854435267 2.5500823627273936
71 1 2.7064441583998797 7.972173782033171 16.545436973794107
72 1 2.7091291709538075 -0.2575739356175125 8.021027360115887
73 1 2.721641539093014 2.497118764266802 16.56743554948563
74 1 2.7311417913008667 19.275881544672195 10.742172030745529
75 1 2.7334251579164337 5.262595074394494 8.07577253258916
76 1 2.735575532542205 19.145348285282523 -0.169492907152183
77 1 2.7450477406834874 2.4721494308243495 5.3261263292318946
78 1 2.7486166679632276 10.78575451912946 8.155332565005702
79 1 2.748980876228363 2.439526672705756 -0.3200683613150718
80 1 2.750471629020747 10.819084132071703 19.302598231663975
81 1 2.751064754618723 2.509501619780359 10.830547968405718
82 1 2.77813311696233 5.192227061792281 13.704802848857941
83 1 2.7820782016045222 19.050298941041248 16.319100973552583
84 1 2.7850561542623677 -0.15858910294126335 13.609140390974575
85 1 2.791627336213536 8.095722920822904 10.841160709081645
86 1 2.803728732926811 16.39124335890399 13.71299360542287
87 1 2.8041372012731816 -0.33427595795676296 19.203190829652456
88 1 2.809486560428959 19.335261545985166 5.285324876366778
89 1 2.814747539974741 10.880384511805671 2.5306267311209125
90 1 2.8198035228743525 -0.2929359792438916 2.5294279316343005
91 1 2.8220060172625097 5.245332149274787 2.518758549414737
92 1 2.8385168421567086 8.006804925755738 -0.1877518623884665
93 1 2.840926858064509 7.993975660925582 5.203702856382469
94 1 2.885651142997121 13.536081802453293 16.418361520740067
95 1 2.8995562997752073 13.689125744019703 10.85742687579153
96 1 2.9125078224490055 16.41423412331328 19.221071472022285
97 1 3.9570822213029415 12.221770922786806 3.9387049911028105
98 1 3.963340835982672 14.815009775996543 6.6749463574430346
99 1 3.989194433215359 17.825273351358998 3.9681612018376957
100 1 4.015830043386328 9.464443169823632 12.288352028108203
101 1 4.023717214950701 3.87721497382109 6.722194900084715
102 1 4.028471905786376 20.696636853543268 6.649747178441541
103 1 4.041439381168536 6.645823470143598 9.4217272811674
104 1 4.054211752846978 3.944779361497146 17.90603130336356
105 1 4.054345385136014 9.481676334939186 6.656839679900825
106 1 4.062269177235365 12.293212393754008 20.587856391825966
107 1 4.067023765785765 9.518317284067043 17.88989703365015
108 1 4.068364666144605 3.918287199842391 12.244179048503758
109 1 4.069036296156932 12.123788296241276 9.439817621492207
110 1 4.070881523829897 6.651771718451949 15.07242769749134
111 1 4.078744481398914 1.1793908006278648 3.8976970908414734
112 1 4.085535176801451 20.62164162058468 12.327325638316951
113 1 4.0880929062360645 17.752643750195574 9.432689038186519
114 1 4.099674922840124 1.174493700249257 15.058021279870658
115 1 4.101473926988787 14.991132950263106 1.1831639988195781
116 1 4.105830224857799 17.764439623206872 20.639828294079432
117 1 4.122391519752426 12.188219985897971 15.004163246765026
118 1 4.129206044095033 1.0614497028932826 9.45443625435903
119 1 4.144437702011521 15.004499110455047 12.360197052765004
120 1 4.147272322918747 9.46467978881721 1.107701011415562
121 1 4.1541210475410715 6.656603489676088 20.616864079849808
122 1 4.1605321873279815 0.9957912495005772 20.66563080373535
123 1 4.162995752796928 3.8142977954055945 1.1368996167603351
124 1 4.164499793606612 20.52025944010837 17.806396500225997
125 1 4.166639497952232 20.599545892501197 1.1739780821379893
126 1 4.171371999793541 14.997951501141088 17.826325183863112
127 1 4.225543013952619 6.64187562895898 3.734441695460211
128 1 4.249154690034149 17.834611143366025 15.000655747448077
129 1 5.2175897145121874 16.34891219983569 5.30023648253438
130 1 5.219284249524429 19.182171066137457 8.007206025481398
131 1 5.305196923230295 8.083621628940087 8.059599218376988
132 1 5.322920694809014 2.5556038884145194 8.049384651471863
133 1 5.324935289344698 8.081889868198177 13.653044626286277
134 1 5.326236788238502 -0.26615996716455836 10.862694341050238
135 1 5.3360128171917065 5.274092047603496 10.796271523494394
136 1 5.351827753411818 19.165649034639955 19.15306543852489
137 1 5.363509737712431 19.18809196874119 2.552074823808502
138 1 5.369672397418849 -0.24559390420771124 5.280883114337356
139 1 5.373090715539111 13.512496582398265 8.044783477594363
140 1 5.4008521043711575 16.35605503073075 -0.1213196213216831
141 1 5.406929980781236 13.63358096418013 2.5379921032080355
142 1 5.40990600961663 10.755177040424975 10.941107656920865
143 1 5.421962031610945 16.397246760892216 10.974692847673209
144 1 5.423459995494432 10.809216389658697 5.297976702767389
145 1 5.423914617003327 2.519276952876572 2.5577890634628893
146 1 5.435809349970465 13.756804045134738 19.298527594356518
147 1 5.438573337220479 5.190388193256899 16.32807247254621
148 1 5.439972012557999 10.743870342694565 16.441914785012337
149 1 5.445980832221019 2.5253203757107214 19.222844713077123
150 1 5.446179685272196 8.109794051999987 19.312929192170298
151 1 5.456174496040141 5.225842417581437 5.314230927311597
152 1 5.466137400168415 -0.3909226255691293 -0.19608826397946574
153 1 5.47106874840841 2.55549585161941 13.604337631619785
154 1 5.473166018809436 10.915596900791112 -0.2894401276671359
155 1 5.480667301036472 13.504893908156923 13.619994230373239
156 1 5.4903784200526 5.241255415520116 -0.23922977082123995
157 1 5.494084832466287 19.283093054340867 13.639308197657524
158 1 5.494455225495959 8.102964676276864 2.430777457872952
159 1 5.502633571902366 16.360444636890012 16.366615293917384
160 1 5.517410703440968 -0.3037063918856456 16.537756116213107
161 1 6.590454589762898 6.755731303914081 12.220964406484338
162 1 6.626562435170754 17.81570986311132 6.662495760771987
163 1 6.633630868790211 20.595897153218104 20.5462341963582
164 1 6.648898468658107 12.079374156258273 6.665074958977923
165 1 6.66044551095394 1.100059586888859 6.721223458472318
166 1 6.6613591407281305 20.622961070031817 9.42797848817965
167 1 6.661566452957432 20.55794035716013 3.9312796349136563
168 1 6.669378665135925 15.140747797152136 3.8578883669797843
169 1 6.671333450939171 12.257570876850147 17.77357045948601
170 1 6.678606003548372 14.92828394757626 9.476029192302883
171 1 6.687847223474013 20.591334576696195 15.126317292696028
172 1 6.707882696215442 17.95057679199762 1.0405727110952518
173 1 6.728617290375095 12.192943789752452 12.216120381080165
174 1 6.729216267443924 6.7279668167056865 6.744648447188845
175 1 6.731040169173575 9.351961736965041 9.565839148097405
176 1 6.746501727425417 9.450856483737342 3.922311483276018
177 1 6.750753235180776 17.78451417382253 17.775906693609894
178 1 6.754047662741372 3.8607495114517842 9.492428651990407
179 1 6.758362612413407 1.0643160299343946 1.0947750443635615
180 1 6.763044099448169 6.667805208705345 17.83663254838819
181 1 6.767822818192168 15.03601842918379 20.740187942749614
182 1 6.786792293797585 17.768475023389886 12.272554436291461
183 1 6.792691356231788 1.061607309732184 12.290139154249156
184 1 6.800424976326492 14.77387273627678 15.016841021800202
185 1 6.803095792619807 12.161727011065844 1.194414990798053
186 1 6.809531995919319 3.9504284858092045 20.53656931759653
187 1 6.825275108991593 9.363678850381463 15.170723855399807
188 1 6.835351915387527 3.878821113014106 14.97343780147767
189 1 6.8380949962521695 9.523159618785348 20.58814721364716
190 1 6.838759789507018 3.8642607265521383 4.012897686507319
191 1 6.8609067275989934 6.6677294134681775 1.1816054150006952
192 1 6.880332434935671 1.168043952761992 17.82830121822974
193 1 7.892809461371743 13.612304500980807 5.292303528770384
194 1 7.940721901427527 19.16845290536744 16.498805189589937
195 1 7.956499618567466 19.181573873225705 5.3722974155482595
196 1 7.9873434276540305 16.39706401650549 19.13337127303873
197 1 7.9881932139484455 16.60471917107034 2.5574493640137717
198 1 7.9948600207278115 13.542583685369804 10.757072486708527
199 1 7.999468300511754 10.794247438306002 8.113115144112623
200 1 8.002010402022995 5.31930529344415 13.53095088905534
201 1 8.004531553464462 5.383249440001071 8.15629269442387
202 1 8.007692285037336 16.409065504404968 8.107883839213189
203 1 8.009444725971553 2.5126454827333125 -0.20403517745285404
204 1 8.010578138508038 2.4482121572548077 10.862587645010214
205 1 8.015322221955458 16.29223839383647 13.659824725466535
206 1 8.022477978217546 -0.364309578474599 13.685592628203956
207 1 8.031456467818021 13.507246338636724 16.373347621361418
208 1 8.036222073179278 -0.4047529224758405 2.6120277647370655
209 1 8.037611718257157 10.784155912566352 2.6146875424581344
210 1 8.041671594132445 8.092163151616727 5.325966802401534
211 1 8.041868151017571 19.28607129522986 10.79805968547866
212 1 8.053621831582513 -0.36459632945968395 19.176417401134348
213 1 8.074885323908093 10.83955612477467 19.012558752027342
214 1 8.075210759850245 10.790476445084966 13.656190599328529
215 1 8.078113633692483 19.128855567569577 -0.29219672409585645
216 1 8.089889865007514 8.1682717196121 -0.2460199871223755
217 1 8.105376234737388 5.206931654875193 2.497348975733123
218 1 8.106855495414235 8.017848727629993 10.918389101347737
219 1 8.108071643626142 2.4956820732507987 16.478472840106697
220 1 8.109884249303011 2.38290969798994 5.380960376092942
221 1 8.110250387344728 -0.25634999096485056 8.08702016179576
222 1 8.117433064054072 5.30068980450162 19.177697441616434
223 1 8.148153776204694 7.926003549101589 16.517345564303454
224 1 8.152785011966126 13.595283961002385 -0.19805691108760104
225 1 9.218133096868886 17.864570052386682 4.003052026197436
226 1 9.283469483992207 3.78782644623366 12.1733636910368
227 1 9.285142574773971 12.257277050202228 3.8614399068844296
228 1 9.29246784786859 17.760754008051283 15.016376023330496
229 1 9.293552772617767 14.989969808339708 17.795406194373708
230 1 9.300131665358702 20.571997610934 1.1621059590386067
231 1 9.305414274905788 17.76421116541567 20.509108578074947
232 1 9.305500630609172 14.951476972543515 6.688145456709033
233 1 9.310675943433083 1.10846867040328 20.57069902845429
234 1 9.320037495593851 3.9204727990058745 17.832928824460062
235 1 9.331082255860437 6.688560204600239 15.078576421647945
236 1 9.344348435978334 20.6197385011468 17.77688416554939
237 1 9.345375627068785 1.063073204750514 9.534854196708173
238 1 9.345475663706235 15.155571962377923 1.2129544394494152
239 1 9.34992439765524 9.379499680446468 1.1756403297921527
240 1 9.354830109072802 6.679495162332595 3.9006105469694416
241 1 9.361400491011237 15.022181227226774 12.110930597897925
242 1 9.390428826406124 9.479625722767812 12.21855567403235
243 1 9.390549497251786 12.111493525082636 20.544555464476563
244 1 9.3976631132638 1.1293395030330269 15.008590807933315
245 1 9.40415121048533 20.502212727904592 6.722513330127936
246 1 9.405823414636636 6.7190422886542045 20.67664178394761
247 1 9.406338604254596 1.0871857612563551 3.8921830774285002
248 1 9.412762089161903 3.8067559211609314 1.1137367660448312
249 1 9.41634328278599 3.9409639729671277 6.812261569245546
250 1 9.419453882032723 9.514453716894694 6.606172885254701
251 1 9.43422963605424 20.620948428240336 12.27872775421915
252 1 9.452330040914763 9.40982423593251 17.749056697525553
253 1 9.456219802189551 17.78552735601498 9.515499751024915
254 1 9.46165471930893 12.298760051852984 15.034598323272041
255 1 9.486466578373143 12.198537921140149 9.365406663374067
256 1 9.486811190531817 6.6161515203916865 9.50280146518847
257 1 10.578597140432908 19.14820502024772 2.5405148030491733
258 1 10.588397826352274 -0.27940176358844754 -0.2687583135998278
259 1 10.603269245781972 2.5195576499659134 13.6117573197958
260 1 10.615504816791079 10.852027163561614 -0.20000755586501484
261 1 10.618687926245721 -0.29318976195722485 5.268587067822889
262 1 10.625266238261606 16.403395437218048 -0.28611113100823077
263 1 10.630495607391769 5.37970151995614 5.3300398093242
264 1 10.632514476888936 16.374345008273583 16.482081630287297
265 1 10.633595572041388 13.64020773694729 2.509380600128379
266 1 10.635723175089442 16.453347861463275 5.301268057775123
267 1 10.63610427251259 19.174006967943576 19.195705528030974
268 1 10.656070128916035 2.559633536286905 19.195420863836105
269 1 10.660131954414087 13.616987757930552 19.22382129325505
270 1 10.661088566356515 5.207395288318483 -0.1760199885284494
271 1 10.666811710213853 8.047792212245744 13.537673879546956
272 1 10.669374605181849 -0.21734224882950232 10.841843162365386
273 1 10.68630257172814 13.614600140759594 8.008652660370414
274 1 10.686888242770122 10.920349124215173 10.880830803876337
275 1 10.68724861595685 -0.23847532593376133 16.424839592955944
276 1 10.690934443996397 10.961106748724037 16.411101898571605
277 1 10.69157881861029 10.96655107084507 5.23380906014343
278 1 10.699902378621157 8.012774027621612 19.203343522426685
279 1 10.702894147835202 19.270679080374283 13.652804924846228
280 1 10.706236820552897 8.053847121740493 8.049328021444792
281 1 10.71132911599484 19.190794248631242 8.13011642301675
282 1 10.715679388891235 2.491537475929091 2.5445300424935
283 1 10.74123139468804 13.750662756792734 13.619093463704283
284 1 10.742992176597081 5.228578588588049 10.826179919949844
285 1 10.746741228695925 2.4546497380219043 8.137089618099719
286 1 10.756036504305436 5.22709885446785 16.427457619328397
287 1 10.761854860848937 8.046034052988162 2.6001379592401253
288 1 10.811027045351048 16.392557249313803 10.87114255646198
289 1 11.87797638327276 9.430886315338192 15.020234678259643
290 1 11.902496821697168 20.622027472204934 20.577233307716103
291 1 11.903404780583916 15.121337449423105 3.8857010740274984
292 1 11.910669298734803 17.83287406248319 17.846163254537707
293 1 11.92062861192574 12.301622018339273 1.1602282174714285
294 1 11.932320762695571 6.6162884634395915 1.181550608983957
295 1 11.94647376316207 12.2838976517082 12.292077492580582
296 1 11.947493980117612 15.009799222440778 20.591543410467132
297 1 11.949466747885406 9.462393941752671 9.531666691803618
298 1 11.950833909412447 6.6721960401061455 17.769381671402567
299 1 11.956918463792302 1.0605784013146284 6.664969753440554
300 1 11.959181498090485 9.352904692399846 20.69353754995701
301 1 11.963395291127782 3.911383302226787 20.592313325431007
302 1 11.968399629431127 1.0276535352407163 12.3299004761689
303 1 11.97073026596757 17.872077444587095 1.123127813658655
304 1 11.975003673444402 9.460969097387578 3.9945772823466865
305 1 11.992993464799163 3.8684017508553383 15.032538841284406
306 1 11.994302878041813 20.636722061064262 9.556622164747422
307 1 11.995504430362935 6.637124636644171 6.7205933464146685
308 1 12.002591517950979 1.1128794909101176 1.2340148808027007
309 1 12.005100726233477 15.012375698142124 15.056186149626438
310 1 12.005215094802919 20.525601742336082 15.087071583145693
311 1 12.017849929860636 17.820387015441693 12.259661884204036
312 1 12.023288083042399 20.581613070193587 3.9091194377990597
313 1 12.024646602917597 1.075798542299768 17.853258256149545
314 1 12.02554810597002 3.878988474547636 4.057417780932384
315 1 12.029641402771599 17.795577272177475 6.659214125492656
316 1 12.069472110800902 12.32029740665522 6.554127662392011
317 1 12.075540911813363 14.938243919484606 9.33640164958471
318 1 12.084651542432631 6.628884431959335 12.162652505280779
319 1 12.120684432386696 12.29069343204233 17.875110351221366
320 1 12.155112682695483 3.8031086698932524 9.49114281352723
321 1 13.18380154954738 19.257223638062012 -0.25181664372955487
322 1 13.184871512432302 10.927656225539044 2.5430840479652552
323 1 13.218515941416179 5.388021432687986 19.241472668602345
324 1 13.232993866555717 13.702189597510037 -0.1063274870001902
325 1 13.243342070865925 7.988001126497744 -0.23157747657315314
326 1 13.249526712603812 8.187884175333169 16.457472956338062
327 1 13.254476270011356 10.840657455676421 13.622832530763677
328 1 13.254488315961341 -0.3631193403499872 13.697288196325296
329 1 13.255654182324902 2.4766724743685833 16.430210925070238
330 1 13.270248322589264 19.205827883340028 16.6068321063135
331 1 13.274670645730152 5.299124049787606 13.668901777615122
332 1 13.27671279283561 10.820206552522862 19.343318001066244
333 1 13.28140758337902 16.45256000254917 8.049809333016649
334 1 13.301815018887973 5.2710783048386505 2.605674467434111
335 1 13.302550609093748 5.2653231552401945 8.062726176822647
336 1 13.303802694297426 16.415200401358998 2.5176631909774474
337 1 13.304553033758934 16.376209430279793 19.301625701531595
338 1 13.308727533507897 19.228676179053192 10.86711590754557
339 1 13.309232891791032 -0.16603638049622968 19.325558906765842
340 1 13.313409782846085 -0.33645843417828464 8.156194796957893
341 1 13.319116542750649 13.684269787166569 10.934553484415467
342 1 13.319617138887661 13.735232033861966 5.163488404141552
343 1 13.325332835271814 10.881657761502371 8.177291559784894
344 1 13.325466955950956 16.468031694588493 13.780815326372295
345 1 13.33989811547315 8.164601455812255 5.448850176259202
346 1 13.340820808794792 -0.27445405169307613 2.582976278241695
347 1 13.341949275138397 2.6003439519389757 -0.24798753060495346
348 1 13.342941060675178 13.658824593719876 16.42004482133507
349 1 13.369456917589979 19.219978005515003 5.228528057751208
350 1 13.378901772429339 2.5183463828647423 10.935818958964928
351 1 13.390936199455735 2.3867586835724914 5.344098224659092
352 1 13.415782330195249 8.095135877909398 10.833116043557583
353 1 14.54572149275914 12.350939269004126 20.634255911752795
354 1 14.549700793914216 6.687088479382805 15.053177924060348
355 1 14.554174883617724 3.936636154824789 17.93245665459715
356 1 14.554919477240482 9.52668436863189 17.794415796031863
357 1 14.566492532662105 20.58590009408598 1.1767331169934623
358 1 14.573510841731226 15.1230691925876 17.79238561929176
359 1 14.578061734643734 9.52827870938922 1.1287178334012034
360 1 14.58025438105626 15.05555562073466 6.597290021678835
361 1 14.58164215702916 17.911790735720885 20.627447605693053
362 1 14.587128473671784 12.313592911389497 14.897790187726196
363 1 14.594724465628822 15.108928945045735 12.251448086872411
364 1 14.596861708651513 17.729658840077832 9.591565710275287
365 1 14.609374346545511 6.782442478359408 3.8713012307630446
366 1 14.623838944541333 9.440121815120806 12.279983817408029
367 1 14.627710953444332 6.747948380878544 20.66582056242007
368 1 14.62945509816903 20.56372948240912 6.668438462639864
369 1 14.63649923754609 12.293459377193305 9.540631795378813
370 1 14.637519577940685 20.63624529629477 12.282197689694605
371 1 14.638994030271729 12.225734936362928 3.8788187403657037
372 1 14.639419236433948 9.517381832348928 6.731117597466207
373 1 14.648545714603559 17.883830276206695 15.140648345201077
374 1 14.653025263893586 3.9355501202764738 6.710867460177425
375 1 14.658234328758109 20.739010528563316 17.78999352264851
376 1 14.659311284413418 6.685778588517863 9.480412441789944
377 1 14.672532566053675 15.037608911268533 1.1077580252913115
378 1 14.685359937111457 1.1295805817825317 15.12896647374588
379 1 14.689000316957394 1.0123498031330318 9.571918616856568
380 1 14.695032287413389 1.1476467410689808 20.728440945483854
381 1 14.697339291888463 3.9362717345839475 12.222248105380922
382 1 14.698461587894775 4.0314057289915795 1.185477125768619
383 1 14.76628371408028 17.843718880748725 3.856078074285025
384 1 14.767774528274275 1.0416578030182986 3.9448884538900724
385 1 15.844985556487035 10.878752802108634 16.328545603659137
386 1 15.883559182899086 5.321608151878349 16.44852654079975
387 1 15.885519255707287 2.3896747062828014 8.186947802315075
388 1 15.885995307844079 19.2517507067533 2.3694540518887304
389 1 15.885996442199533 10.756584462454342 10.905082520876896
390 1 15.897711095633397 10.888470656107794 5.317592958736749
391 1 15.90215982690478 19.19492291997511 8.196121012049602
392 1 15.90623847204207 2.6213845330721135 2.5801110548493873
393 1 15.914071796261709 16.40460196295445 -0.2600367913098142
394 1 15.914177931063685 13.605414789805163 19.13912837278363
395 1 15.919385809669848 11.00371243000997 -0.19370281422691446
396 1 15.925481868039142 19.319273165231863 19.233456212331955
397 1 15.93835555767369 16.3883912059012 10.92502273062603
398 1 15.944130849670787 8.182859463934355 2.515969141008875
399 1 15.945756414806839 19.191488360587748 13.592527620975803
400 1 15.94859654141077 8.064858530806124 13.703929129280649
401 1 15.952719093667156 13.716403077738727 13.603373255718706
402 1 15.957114738941538 2.4915846860242796 13.678686323483904
403 1 15.960322260666803 8.22589290453413 19.24242540560215
404 1 15.962384970871497 8.089422883276733 8.125398693673944
405 1 15.973473830440103 2.5851682638826694 19.256790811791223
406 1 15.97536297165739 5.479293981257053 5.4540785698469625
407 1 15.977510745448527 -0.1624198883575245 -0.14373216748296674
408 1 15.978372863975483 13.652842353236384 8.054877827855917
409 1 15.987422039691825 -0.28854736373633844 16.44982093331307
410 1 15.99356879059302 16.429549192130697 16.4051775466508
411 1 16.000280237306217 16.454052205915595 5.304407467133611
412 1 16.001767093755262 -0.30128935284363123 10.99208493369686
413 1 16.012994152322587 5.294548886156855 10.818981517271434
414 1 16.02479604115941 5.31710830392461 -0.18164475627459348
415 1 16.035109354450366 13.722736111046224 2.4975784630777915
416 1 16.070257529008607 -0.34724100198871927 5.386507058383684
417 1 17.17666532896378 20.46833879585627 3.92735874436843
418 1 17.176706749945794 12.255968035484962 6.697030096070957
419 1 17.185738986528484 9.553736924544898 3.9324626303197343
420 1 17.191699387283013 15.058802269518308 9.520944817765077
421 1 17.19323039952873 20.658383387478562 20.650650266704382
422 1 17.20985556499307 12.261708848313988 12.248954929253955
423 1 17.21407579318626 9.543373334487349 14.948930655560908
424 1 17.21646037702548 17.786157197769263 6.738345351644734
425 1 17.232592145537996 3.8953296308464713 15.027907367523415
426 1 17.238477699394153 20.51927689544777 9.593886468328272
427 1 17.240968933851192 9.664503794594797 20.675201122557795
428 1 17.245458291426857 6.723930510156529 1.2547988543598254
429 1 17.250547996709184 20.576864614258444 14.947627104909259
430 1 17.256393878111513 1.086831723612491 6.758662456587244
431 1 17.258502358076566 6.72400575871907 17.856517133232195
432 1 17.26013625789506 17.83630480574091 0.9800739320325625
433 1 17.26038616289582 3.820154219880553 9.465664531507041
434 1 17.26691447453401 3.835991525511953 20.643874665861702
435 1 17.2787199536048 6.66889727861368 12.278175122270554
436 1 17.279521343492007 14.966551149055809 14.980373282163526
437 1 17.29096362531232 1.0549979133531067 1.3645716504496022
438 1 17.292984166012396 3.979240191909603 4.093974327256112
439 1 17.298830155503175 17.729544292357403 12.279896284928139
440 1 17.30207622795074 17.900131050274453 17.886428190504613
441 1 17.308399848217793 9.479371981722512 9.493589411956362
442 1 17.31629879789515 15.064630051351985 20.525937385890185
443 1 17.3461105471467 1.0633480691187527 17.884733972354848
444 1 17.364499226779387 1.1033819980581654 12.32282183469915
445 1 17.364677860839894 12.241451323166954 17.745368336148314
446 1 17.37165274735457 12.285923843062234 1.2046733797672344
447 1 17.37701743207458 6.808431369385957 6.75732463315575
448 1 17.396973773381212 15.096333248683802 3.8581522470793446
449 1 18.450967579246925 10.822248409283503 8.024770335928329
450 1 18.473981582547335 8.0091921935454 16.331118927706626
451 1 18.48291604794019 5.230528732889983 13.651163621689864
452 1 18.50748405235835 8.09633697630283 -0.24104572988187542
453 1 18.528632396905735 2.5077050228247075 16.459291195047
454 1 18.5427654105549 13.790709919514658 10.91518590427544
455 1 18.545749583072105 10.826636641668332 13.692187767388104
456 1 18.550198135660978 19.20631753227665 -0.32657925248528735
457 1 18.56472420797603 -0.34758442348968666 8.23212925357226
458 1 18.566594191062013 2.4054891003342407 5.391977062246049
459 1 18.568066407421405 16.297524062776073 8.173890835893038
460 1 18.573634168646823 2.398680935895705 -0.19785438429786503
461 1 18.57460949220798 5.3197551328966 8.12970772148406
462 1 18.585879568484323 19.23307383721544 5.267369830735835
463 1 18.588964987711396 16.42538583866753 19.2023952650433
464 1 18.5988782642887 19.194846674494304 16.382670675993886
465 1 18.601647137209117 16.427289375854436 13.719520620153235
466 1 18.611706829277576 13.700042282654909 5.339148488475664
467 1 18.615001785028213 10.738082724035037 2.5217963190052424
468 1 18.617593329159476 5.336517508314849 2.6312500907759158
469 1 18.620810464888372 8.134002936717717 5.280595392284963
470 1 18.628943963748483 19.161097351762272 10.89959701447855
471 1 18.640965894484044 -0.3770783608918418 19.347656681805663
472 1 18.654787948238216 16.48408892839448 2.3861879647236326
473 1 18.666001623773155 -0.3931286619870702 2.6966714547041484
474 1 18.666615406469408 10.852943885764933 19.18905061990035
475 1 18.67041729127018 2.361442491146648 10.802645016583758
476 1 18.679652789099638 8.119806677730455 10.987253029877824
477 1 18.68950587853245 -0.3834829066374368 13.544891888567813
478 1 18.70979614106738 5.262397976944483 19.294773552043637
479 1 18.710006936308297 13.544698215166285 16.39411196688443
480 1 18.72021649177273 13.651571261278596 -0.26016989320923334
481 1 19.76401047251531 1.0329746303918839 15.087609168519583
482 1 19.797918614874273 12.34110066075954 9.438636328581628
483 1 19.816066813897944 17.86457568262778 3.8450067624735556
484 1 19.840724973437165 6.701251143232192 9.496599216007906