LAMMPS data file via write_data, version 12 Dec 2018, timestep = 400003

24000 atoms
2 atom types

-23.4592524273770096e+00 3.3694333242736508e+02 xlo xhi
-1.7068383131708877e+00 5.1758918313170909e+01 ylo yhi
-1.6587079053775859e+00 5.1710787905377316e+01 zlo zhi

Masses

1 39.948
2 159.792

Atoms # atomic

1 1 -1.9785245908803295e+00 -2.3724009720471928e-01 -6.4083610690766202e-01 0 0 0
11 1 -2.1590417911757469e+00 2.0800164331959925e+00 2.5840608572045425e+00 0 0 0
201 1 2.0217769258633403e-01 -5.3081824830337154e-01 2.2804107931770838e+00 0 0 0
211 1 5.3783782551501447e-01 2.4821344258558375e+00 -1.6507815421557892e-01 0 0 0
401 1 3.2491550710711219e+00 -4.4198609997878502e-01 -2.2033358402357375e-01 0 0 0
411 1 3.1475774849529068e+00 2.1405295586528701e+00 2.4956273724944196e+00 0 0 0
601 1 5.7066780250126046e+00 -3.6612734524801666e-01 2.3777594084576004e+00 0 0 0
611 1 5.7040481579101359e+00 2.2434753483391119e+00 -1.4252795552111858e-01 0 0 0
801 1 8.4607740487511620e+00 -4.8959116811228520e-01 -2.5951569400892943e-01 0 0 0
811 1 8.6863662950558833e+00 2.3201816441499941e+00 2.2989806457525446e+00 0 0 0
1001 1 1.1340026693671300e+01 -2.8175240108855970e-01 2.4433185315101129e+00 0 0 0
1011 1 1.1143384474516024e+01 2.3871728020962011e+00 -3.3683429169750112e-01 0 0 0
1201 1 1.3701876611296372e+01 -4.6111559536702690e-01 -1.6875078373931077e-01 0 0 0
1211 1 1.3948612205340055e+01 2.1464742954984048e+00 2.4157023305136187e+00 0 0 0
1401 1 1.6805606226922766e+01 -3.4219346580578275e-01 2.4041858947239638e+00 0 0 0
1411 1 1.6391017612537269e+01 2.3462718250828689e+00 -3.8059850114081734e-01 0 0 0
1611 1 1.9346365475321150e+01 2.3232605146270235e+00 2.6198580865941339e+00 0 0 0
1601 1 1.9283416363909723e+01 -1.8764097521936052e-01 -2.7846246213599768e-01 0 0 0
1801 1 2.1725996516863354e+01 -2.6374598157259638e-01 2.4729664437835286e+00 0 0 0
1811 1 2.1922645573041166e+01 2.5395256582726873e+00 -3.5965355222928402e-02 0 0 0
2001 1 2.4382314043686641e+01 -4.2691477496735070e-01 -1.1362671802350968e-01 0 0 0
2011 1 2.4473112734397905e+01 2.4472059146391580e+00 2.5994948861894427e+00 0 0 0
2201 1 2.7089864292776344e+01 -4.3557047393805509e-01 2.4905527099397569e+00 0 0 0
2211 1 2.7232210751542318e+01 2.1523221349858148e+00 4.2778630668945071e-02 0 0 0
2401 1 3.0112922572853368e+01 -3.6134360668875254e-01 -4.7825532071287154e-02 0 0 0
2411 1 2.9920668467870744e+01 2.1778332755053964e+00 2.4241204085909778e+00 0 0 0
2601 1 3.2804898001240460e+01 -5.3615292511969626e-01 2.5616364186230691e+00 0 0 0
2611 1 3.2460862806447587e+01 2.4118558904466285e+00 -1.3171302447582295e-02 0 0 0
2801 1 3.5231457202099669e+01 -5.0747916800278026e-01 -3.7327886950429823e-01 0 0 0
2811 1 3.5425452773153026e+01 2.1913528125603441e+00 2.2616549421817931e+00 0 0 0
21 1 -2.3346565156885952e+00 4.9899568071679461e+00 -1.4223661725558617e-01 0 0 0
31 1 -2.2695158121746313e+00 7.6878805845384388e+00 2.5012151298532235e+00 0 0 0
221 1 5.1025541700458177e-01 4.8351766020379205e+00 2.5408740722265737e+00 0 0 0
231 1 5.0700162686007610e-01 7.7858747384894862e+00 1.5798853117583589e-01 0 0 0
421 1 2.9567467737060693e+00 5.1425041792002890e+00 -2.0374892555150698e-01 0 0 0
431 1 3.3286802410502729e+00 7.6755936898881396e+00 2.4555012784111749e+00 0 0 0
621 1 5.7925919867125701e+00 5.1091125024004880e+00 2.3653256629348083e+00 0 0 0
631 1 6.0027837234325032e+00 7.7009633288309960e+00 -8.6992736686086425e-02 0 0 0
821 1 8.6403427143548619e+00 5.1162076132168179e+00 -2.3771253167277634e-01 0 0 0
831 1 8.6873084522422879e+00 7.7077237758231893e+00 2.5538772992748973e+00 0 0 0
1021 1 1.1343200348556863e+01 4.9184973937576864e+00 2.5101281127008299e+00 0 0 0
1031 1 1.1420669884023471e+01 7.6758251816871805e+00 -7.7364748547078380e-02 0 0 0
1221 1 1.4097011642693694e+01 5.1367681488186774e+00 -1.9009060652984244e-01 0 0 0
1231 1 1.3988510188226027e+01 7.7023847924691244e+00 2.3759600116088224e+00 0 0 0
1421 1 1.6889474910323866e+01 5.1191404902054147e+00 2.4695323795686663e+00 0 0 0
1431 1 1.6658542107768628e+01 7.9513423269022203e+00 -1.7293958967115164e-01 0 0 0
1621 1 1.9089000806353159e+01 4.8521276186140865e+00 -2.4762510535686141e-01 0 0 0
1631 1 1.9304104454712469e+01 7.9229728459900244e+00 2.5035745343389144e+00 0 0 0
1821 1 2.1683412953526847e+01 5.0697300394953340e+00 2.5588830386800190e+00 0 0 0
1831 1 2.1885140994984720e+01 7.5639503415619149e+00 -1.8279746138001027e-01 0 0 0
2021 1 2.4524782546445422e+01 5.0840818892761277e+00 -4.0019307640612944e-01 0 0 0
2031 1 2.4483839405215409e+01 7.5793228759463114e+00 2.8868117922563958e+00 0 0 0
2221 1 2.7000004639822848e+01 4.9943768801919095e+00 2.3669344399027628e+00 0 0 0
2231 1 2.7128528766834570e+01 7.5775313493547314e+00 -1.3461361487774159e-01 0 0 0
2421 1 2.9817309908467639e+01 4.9515691962736872e+00 -2.8834079574799397e-03 0 0 0
2431 1 2.9731938504053300e+01 7.7361399718934463e+00 2.6103089902239125e+00 0 0 0
2621 1 3.2649502293964900e+01 5.0363298634271567e+00 2.7271243719895706e+00 0 0 0
2631 1 3.2435073169164291e+01 7.4999186850562509e+00 -1.1115783252036639e-01 0 0 0
2821 1 3.5133824658522300e+01 5.1005516209860131e+00 -2.4744556917265820e-01 0 0 0
2831 1 3.4989949330432331e+01 7.5649716753807787e+00 2.6824382081905851e+00 0 0 0
41 1 -2.1968405646288667e+00 1.0396075992981263e+01 5.8584596180294357e-03 0 0 0
51 1 -2.0684415241432861e+00 1.3114255241455190e+01 2.5864158185697246e+00 0 0 0
241 1 8.1591741607376023e-01 1.0515330261521690e+01 2.4480528190814161e+00 0 0 0
251 1 6.7097364394106040e-01 1.2941044636757058e+01 -2.4819530174588300e-01 0 0 0
441 1 3.2766990456763976e+00 1.0294041721420403e+01 -1.8799620297653771e-01 0 0 0
451 1 3.1768929258564160e+00 1.3123608925002481e+01 2.3201279185058485e+00 0 0 0
641 1 5.8591325617116405e+00 1.0221371882066459e+01 2.5929181067480598e+00 0 0 0
651 1 5.8571901434690190e+00 1.3002311913330637e+01 -8.0177945479421864e-02 0 0 0
841 1 8.6925243941595802e+00 1.0421469596441918e+01 -3.4776478381086516e-02 0 0 0
851 1 8.4002999981239714e+00 1.2818646320102902e+01 2.6252670512894962e+00 0 0 0
1041 1 1.1195692990791580e+01 1.0343834207346402e+01 2.9103145186127133e+00 0 0 0
1051 1 1.1158372445019653e+01 1.3046874545833207e+01 -1.7170654242880889e-01 0 0 0
1241 1 1.3923123993161470e+01 1.0365662142158637e+01 -6.3251293272260145e-02 0 0 0
1251 1 1.3863092231587043e+01 1.3105269389596788e+01 2.4673804286839740e+00 0 0 0
1441 1 1.6502375743245342e+01 1.0518398422154593e+01 2.5159263643334615e+00 0 0 0
1451 1 1.6481851585476530e+01 1.3011064159571987e+01 6.4606844294621116e-02 0 0 0
1641 1 1.9169082601591608e+01 1.0347154238045752e+01 -1.5785428150394193e-01 0 0 0
1651 1 1.9328071856344096e+01 1.3081468851316833e+01 2.4771401813740082e+00 0 0 0
1841 1 2.1935868849715085e+01 1.0464856922959783e+01 2.4703807962823805e+00 0 0 0
1851 1 2.1797458103501292e+01 1.2879266472229268e+01 -4.3905440493420772e-01 0 0 0
2041 1 2.4624276131518247e+01 1.0323070090615849e+01 -2.7444345432901079e-01 0 0 0
2051 1 2.4462116091061375e+01 1.3095422087306304e+01 2.4226141752126447e+00 0 0 0
2241 1 2.7210545696272550e+01 1.0458184698570008e+01 2.4734352903947174e+00 0 0 0
2251 1 2.7199997446782518e+01 1.2965105812946213e+01 -1.4787823981525530e-01 0 0 0
2441 1 2.9848861871448150e+01 1.0199288542321639e+01 -1.5417196846503398e-01 0 0 0
2451 1 2.9821618450029813e+01 1.2952714153494911e+01 2.3393061740161807e+00 0 0 0
2641 1 3.2456215219574588e+01 1.0380030350239529e+01 2.4622602433990601e+00 0 0 0
2651 1 3.2327381498428352e+01 1.3060287138543375e+01 -4.0001017204498945e-01 0 0 0
2841 1 3.4812551163983066e+01 1.0170528485359478e+01 -2.6368503279456673e-01 0 0 0
2851 1 3.5142181885952120e+01 1.2778375271642656e+01 2.5445080799842015e+00 0 0 0
61 1 -2.0961571204077050e+00 1.5743655277403958e+01 -2.3861620049269294e-01 0 0 0
71 1 -2.1233651903584034e+00 1.8542749066253670e+01 2.5633181931394446e+00 0 0 0
261 1 5.6354320012591175e-01 1.5723707813882276e+01 2.4191510060388541e+00 0 0 0
271 1 4.4734453902186966e-01 1.8492265911773060e+01 -1.7229965653219326e-01 0 0 0
461 1 3.2529008103372621e+00 1.5764792309115899e+01 -3.4082491131702869e-01 0 0 0
471 1 3.2905880398630294e+00 1.8369159430956731e+01 2.3846995301488274e+00 0 0 0
661 1 5.6985597393095411e+00 1.5805995067596914e+01 2.4232917346984886e+00 0 0 0
671 1 6.0090340325869978e+00 1.8468421445566200e+01 -1.7796983094051083e-01 0 0 0
861 1 8.4751026095633311e+00 1.5603818954211151e+01 5.6753196302249932e-02 0 0 0
871 1 8.8128072097969952e+00 1.8365835070275104e+01 2.7431896267656768e+00 0 0 0
1061 1 1.1173366483951771e+01 1.5569391908752610e+01 2.5636758937005162e+00 0 0 0
1071 1 1.1137771845529993e+01 1.8336027397570177e+01 -2.9750070588096905e-01 0 0 0
1271 1 1.3495183627321197e+01 1.8451264491471214e+01 2.4811011668316798e+00 0 0 0
1261 1 1.3806592895247801e+01 1.5626905902910238e+01 -3.1230340458337236e-01 0 0 0
1461 1 1.6487977376774026e+01 1.5801327222349189e+01 2.6541776862115416e+00 0 0 0
1471 1 1.6464674003951021e+01 1.8328300471755206e+01 -1.2162830798605605e-01 0 0 0
1671 1 1.9327901130810901e+01 1.8198480485091906e+01 2.5232043878066825e+00 0 0 0
1661 1 1.9239576671789184e+01 1.5487161648706090e+01 -9.7709404957686555e-02 0 0 0
1861 1 2.1967616709815985e+01 1.5530251637468410e+01 2.5065620330754230e+00 0 0 0
1871 1 2.1926642613403551e+01 1.8345087720190708e+01 -2.4538951430654207e-01 0 0 0
2061 1 2.4327282259366459e+01 1.5549351662744444e+01 -1.6740697862845039e-01 0 0 0
2071 1 2.4437014217403384e+01 1.8252434911566134e+01 2.4977957485327114e+00 0 0 0
2261 1 2.6922691930901422e+01 1.5494331438992116e+01 2.6387836741936170e+00 0 0 0
2271 1 2.7148920979163218e+01 1.8226861688297280e+01 7.0054118238126184e-02 0 0 0
2461 1 2.9744960829153335e+01 1.5716171004995651e+01 -1.0610484314951206e-01 0 0 0
2471 1 2.9928794524164832e+01 1.8078935387455768e+01 2.6204603805309645e+00 0 0 0
2661 1 3.2628348023754732e+01 1.5649285071377093e+01 2.4859694010438571e+00 0 0 0
2671 1 3.2447052209457233e+01 1.8223793757627330e+01 -1.4616543997903564e-01 0 0 0
2861 1 3.5103983069914648e+01 1.5838851033162387e+01 -3.7645825939135069e-01 0 0 0
2871 1 3.5326745018767419e+01 1.8423281221050470e+01 2.6668483125888658e+00 0 0 0
81 1 -2.1826496086567273e+00 2.1008744577846898e+01 -1.0066009555965418e-01 0 0 0
91 1 -2.1133101038253388e+00 2.3712511733358813e+01 2.7498762243393027e+00 0 0 0
281 1 5.0762714559337363e-01 2.1161483594040710e+01 2.5310397754668239e+00 0 0 0
291 1 5.9351868793578111e-01 2.3784850340403938e+01 -2.7945619614656719e-01 0 0 0
481 1 3.1825416800607291e+00 2.0916331500037973e+01 -2.6016615791463421e-01 0 0 0
491 1 2.9853811893481561e+00 2.3501269494417272e+01 2.3559692444523801e+00 0 0 0
681 1 5.9943164312104020e+00 2.0953449060231609e+01 2.4528621408518498e+00 0 0 0
691 1 5.7587549379352314e+00 2.3711128845887398e+01 -9.7732853710114753e-02 0 0 0
881 1 8.7625175108468678e+00 2.1077182044975174e+01 -2.8941777719896156e-01 0 0 0
891 1 8.6014690936428835e+00 2.3757164636334547e+01 2.2713201597833432e+00 0 0 0
1081 1 1.1173847999367851e+01 2.1117914953107938e+01 2.5302912355428933e+00 0 0 0
1091 1 1.1341174686791376e+01 2.3720725207468803e+01 -8.8158050790920303e-02 0 0 0
1291 1 1.4014559543184756e+01 2.3729563423813513e+01 2.5612790125272942e+00 0 0 0
1281 1 1.3719780397295263e+01 2.0990587305330770e+01 -2.6249149226491042e-01 0 0 0
1481 1 1.6367699955269217e+01 2.0886815321816769e+01 2.5578274254608266e+00 0 0 0
1491 1 1.6588020830858447e+01 2.3333372221628643e+01 -2.4010767043097864e-01 0 0 0
1691 1 1.9075351524699222e+01 2.3371306208163201e+01 2.5414548323241628e+00 0 0 0
1681 1 1.9147493523956669e+01 2.0939531563700900e+01 -1.3106298829392529e-01 0 0 0
1881 1 2.1885183229349860e+01 2.0927616125951484e+01 2.4818536387443446e+00 0 0 0
1891 1 2.1982975236087245e+01 2.3641129333425919e+01 -3.2884010065133214e-03 0 0 0
2081 1 2.4610748417952525e+01 2.0884731908942989e+01 1.4553468693751920e-01 0 0 0
2091 1 2.4376573837557928e+01 2.3800734809402638e+01 2.5227118514036859e+00 0 0 0
2281 1 2.7146672479071384e+01 2.1051864746641851e+01 2.6159668773183569e+00 0 0 0
2291 1 2.7193331667741106e+01 2.3428778999399533e+01 5.3696155339402966e-02 0 0 0
2481 1 2.9849638824464762e+01 2.0763035099107704e+01 -1.1126044158191710e-01 0 0 0
2491 1 2.9894994992601060e+01 2.3426926963977692e+01 2.4745529683863245e+00 0 0 0
2681 1 3.2523872007300760e+01 2.0830971274066641e+01 2.6070898137051719e+00 0 0 0
2691 1 3.2456848335239258e+01 2.3476133831866029e+01 -6.2998412958501879e-02 0 0 0
2881 1 3.5263123616109390e+01 2.0799207335808486e+01 -1.7833641983812246e-01 0 0 0
2891 1 3.5324547162781933e+01 2.3655143377782110e+01 2.4156645576239404e+00 0 0 0
2 1 -2.2373657340352207e+00 -2.3209200562807472e-01 5.3096713344553637e+00 0 0 0
12 1 -2.2884739678872843e+00 2.5055950091200918e+00 7.8468582259444561e+00 0 0 0
202 1 3.3669234364294265e-01 -4.3440497654209859e-01 7.6788589481838354e+00 0 0 0
212 1 5.4582032701919070e-01 2.2445764695237584e+00 5.1662544257762839e+00 0 0 0
402 1 3.1066023921403669e+00 -5.2174184911137755e-01 5.0594562074889042e+00 0 0 0
412 1 3.1151463196063820e+00 2.5860152130401333e+00 7.7821994103906373e+00 0 0 0
602 1 5.8113128218891736e+00 -3.8441544122486204e-01 7.7763842577428557e+00 0 0 0
612 1 5.9151075210834163e+00 2.2610624687304641e+00 5.0331885961379825e+00 0 0 0
802 1 8.5905239514605505e+00 -2.3312610458587574e-01 5.1226647446988522e+00 0 0 0
812 1 8.6768853315345744e+00 2.2692942374972915e+00 7.9687093272130483e+00 0 0 0
1002 1 1.1333261620760132e+01 -2.6975907697685420e-01 7.5817440482401111e+00 0 0 0
1012 1 1.1323047215264971e+01 2.4512741967324096e+00 5.0306559209578570e+00 0 0 0
1212 1 1.4000018248360005e+01 2.3433056011130637e+00 7.7709615975216568e+00 0 0 0
1202 1 1.4072323570329633e+01 -3.1125859761291241e-01 5.0364767279244091e+00 0 0 0
1402 1 1.6582303451002119e+01 -1.1346548381182665e-01 7.8863810576543809e+00 0 0 0
1412 1 1.6586447652167600e+01 2.3986370653324069e+00 5.1299331976609706e+00 0 0 0
1612 1 1.8992201576323794e+01 2.4486106358884858e+00 7.8684567766521356e+00 0 0 0
1602 1 1.9123006297285922e+01 -3.6451310496651557e-01 5.1137733415818687e+00 0 0 0
1802 1 2.2120316025125376e+01 -4.1251557725425719e-01 7.7146787294170016e+00 0 0 0
1812 1 2.1785506020536037e+01 2.3501537213264734e+00 5.3261861171737381e+00 0 0 0
2002 1 2.4610310618664315e+01 -1.1295998500355353e-01 5.1630135284007022e+00 0 0 0
2012 1 2.4753621503604883e+01 2.4487771165259256e+00 7.8807218402486416e+00 0 0 0
2202 1 2.7229996576359394e+01 -3.0348637765313918e-01 7.6826589192942976e+00 0 0 0
2212 1 2.7031712430129833e+01 2.3849048013746268e+00 5.2061208825906480e+00 0 0 0
2402 1 2.9836305039050103e+01 -2.9798391691950921e-01 5.1330409691611409e+00 0 0 0
2412 1 2.9616899536828964e+01 2.4582916263015000e+00 7.8527610138610280e+00 0 0 0
2602 1 3.2695787567457025e+01 -2.3566702958682736e-01 7.9484808102236615e+00 0 0 0
2612 1 3.2442103616689330e+01 2.1962068494091818e+00 5.1137443751791753e+00 0 0 0
2802 1 3.5262226276361147e+01 -2.7951234279006976e-01 5.3214918552290458e+00 0 0 0
2812 1 3.5219772927844652e+01 2.2990565434523820e+00 7.9120215491770747e+00 0 0 0
22 1 -2.1753645053503736e+00 4.7378970427944784e+00 5.2584684022553096e+00 0 0 0
32 1 -2.4622011002981909e+00 7.6737873363638123e+00 7.7034906164840509e+00 0 0 0
222 1 4.6041521850484701e-01 5.2049828672566392e+00 7.7767944162145470e+00 0 0 0
232 1 5.5630395223854012e-01 7.7418664981395624e+00 5.0184160149689276e+00 0 0 0
422 1 3.0430649191389794e+00 5.0666980396142733e+00 4.9713146834821558e+00 0 0 0
432 1 3.0933276852313556e+00 7.6609819648158268e+00 7.6873127750430665e+00 0 0 0
622 1 6.1548632392427036e+00 4.7044676081031156e+00 7.9009216997656555e+00 0 0 0
632 1 5.7984267823521076e+00 7.5277932647802350e+00 5.2003496622116421e+00 0 0 0
822 1 8.5567622032033555e+00 4.9204361182962648e+00 5.1466165934737740e+00 0 0 0
832 1 8.4597495289796178e+00 7.4926206889988478e+00 7.8427148747512074e+00 0 0 0
1022 1 1.1300264251265624e+01 4.8787457324194925e+00 7.9785636158193070e+00 0 0 0
1032 1 1.1237944185429331e+01 7.6172231230158998e+00 5.3268402945871545e+00 0 0 0
1222 1 1.3919674435930094e+01 4.9685630944577657e+00 5.0710418339232461e+00 0 0 0
1232 1 1.4023118403833934e+01 7.4885221860179945e+00 7.6729497585973663e+00 0 0 0
1422 1 1.6485628335476243e+01 5.0421233913445205e+00 7.9060503328459912e+00 0 0 0
1432 1 1.6676184762763658e+01 7.7424165803296638e+00 5.1551488475381575e+00 0 0 0
1632 1 1.9066919426187123e+01 7.5857679613416007e+00 7.9624055684948765e+00 0 0 0
1622 1 1.9113149352575679e+01 4.7829518484752098e+00 5.2733701585889410e+00 0 0 0
1822 1 2.1735473026131753e+01 5.1301753135334405e+00 7.7549102141404616e+00 0 0 0
1832 1 2.1589922739995277e+01 7.7626170904423732e+00 5.3214979190001843e+00 0 0 0
2022 1 2.4510456142867707e+01 5.1040902847000940e+00 5.3733168195988013e+00 0 0 0
2032 1 2.4626201293952100e+01 7.5726561081579300e+00 7.8736463973211199e+00 0 0 0
2222 1 2.7223260787709886e+01 5.0081851615478241e+00 7.9080040735556851e+00 0 0 0
2232 1 2.6997742719412926e+01 7.8158399034779569e+00 5.3594224774954382e+00 0 0 0
2422 1 2.9586587763797603e+01 4.9913808626819955e+00 5.1982362029373421e+00 0 0 0
2432 1 2.9670888298135210e+01 7.6236155679449773e+00 8.0723147526891719e+00 0 0 0
2622 1 3.2502537714459372e+01 5.0173264815745364e+00 7.8457952197587559e+00 0 0 0
2632 1 3.2327792256278279e+01 7.8285956226534381e+00 5.3497944377884945e+00 0 0 0
2822 1 3.5330207890306006e+01 4.9926117185056968e+00 5.1843714729300041e+00 0 0 0
2832 1 3.5301996755024575e+01 7.5826937681782258e+00 7.9300436781725177e+00 0 0 0
42 1 -2.2107383096858304e+00 1.0162937221984704e+01 5.1301487712571161e+00 0 0 0
52 1 -2.0335043003342888e+00 1.3150285226041580e+01 7.9295513738716039e+00 0 0 0
242 1 5.0239429181834361e-01 1.0335138923704799e+01 7.7949850455374072e+00 0 0 0
252 1 6.6215362866747185e-01 1.3044408281488852e+01 5.2539011806184055e+00 0 0 0
442 1 3.2007336179728223e+00 1.0564758514724765e+01 5.2534443686053356e+00 0 0 0
452 1 3.2107917239089936e+00 1.3076944272509269e+01 7.8404129745094302e+00 0 0 0
642 1 5.8560358915303956e+00 1.0203630512210147e+01 8.0363964783800927e+00 0 0 0
652 1 5.9514046730171497e+00 1.3038335730529507e+01 5.1340240137198494e+00 0 0 0
842 1 8.4739862077737254e+00 1.0280350285160676e+01 5.2604222820748436e+00 0 0 0
852 1 8.3954118074346002e+00 1.2805316085162131e+01 7.9337097341276719e+00 0 0 0
1042 1 1.1206246108311346e+01 1.0291890573061357e+01 7.8576785990516722e+00 0 0 0
1052 1 1.1318694350345025e+01 1.2919532130674538e+01 5.1230127898402884e+00 0 0 0
1252 1 1.3861088380431312e+01 1.2997469666016151e+01 7.7672917473602485e+00 0 0 0
1242 1 1.4057671679353151e+01 1.0225490103914249e+01 5.2718893453055662e+00 0 0 0
1442 1 1.6541714850744032e+01 1.0411792170816510e+01 7.9770837627030371e+00 0 0 0
1452 1 1.6246283254307262e+01 1.3102760712151598e+01 5.2636706932431538e+00 0 0 0
1642 1 1.9066574524741299e+01 1.0251077624347193e+01 5.3510645071107339e+00 0 0 0
1652 1 1.9091147199563341e+01 1.2842296097229765e+01 7.8739167268583188e+00 0 0 0
1842 1 2.1849869837829431e+01 1.0383556270696916e+01 7.8206839772060892e+00 0 0 0
1852 1 2.1682598408266141e+01 1.2901234570394621e+01 5.2552402615198801e+00 0 0 0
2042 1 2.4382714756299119e+01 1.0507851799634036e+01 5.2675107042081635e+00 0 0 0
2052 1 2.4404214608209276e+01 1.3005757203611758e+01 8.1391718363916699e+00 0 0 0
2242 1 2.7142452916549420e+01 1.0225779766649344e+01 8.0354332716893282e+00 0 0 0
2252 1 2.7010130717813109e+01 1.3194930340959989e+01 5.3355920360775704e+00 0 0 0
2442 1 2.9740841879192963e+01 1.0423569178455717e+01 5.4028936768421598e+00 0 0 0
2452 1 2.9786897417479857e+01 1.3181432604519904e+01 8.2733499003736153e+00 0 0 0
2642 1 3.2641499932762535e+01 1.0682737815384012e+01 7.8371589650011497e+00 0 0 0
2652 1 3.2278663594403184e+01 1.3070534796606697e+01 5.0095658172007411e+00 0 0 0
2842 1 3.5380148627448051e+01 1.0292939728885610e+01 5.3068112508778595e+00 0 0 0
2852 1 3.5348765499398645e+01 1.3084167986723868e+01 7.7220099948011311e+00 0 0 0
62 1 -2.0484151621951674e+00 1.5772158329993090e+01 5.1285440976677137e+00 0 0 0
72 1 -2.0296044901853172e+00 1.8283989273945163e+01 7.8129678066863582e+00 0 0 0
262 1 4.5620352696143168e-01 1.5569129965301048e+01 7.8642958868486925e+00 0 0 0
272 1 4.4838766742475406e-01 1.8374266416855431e+01 5.1016207543015710e+00 0 0 0
462 1 3.3492844350319482e+00 1.5822609568721345e+01 5.3271480883776894e+00 0 0 0
472 1 3.3115734178207861e+00 1.8166652391989043e+01 7.7970626389260431e+00 0 0 0
662 1 5.8401501317628739e+00 1.5617393148780552e+01 7.7675373439251727e+00 0 0 0
672 1 5.9142141643464958e+00 1.8358031012150800e+01 5.1063565872236820e+00 0 0 0
862 1 8.6591500921395443e+00 1.5476499728060801e+01 5.1924919520671082e+00 0 0 0
872 1 8.5235683452434969e+00 1.8300509373417654e+01 7.8240787424352138e+00 0 0 0
1062 1 1.1148194692126264e+01 1.5491616246623652e+01 7.7292918162120650e+00 0 0 0
1072 1 1.1367181020450168e+01 1.8297230018341327e+01 5.4025696391644571e+00 0 0 0
1272 1 1.4024736604256589e+01 1.8151235851620019e+01 7.9598689879886226e+00 0 0 0
1262 1 1.3889720825439595e+01 1.5652248783125158e+01 5.0628795980796486e+00 0 0 0
1462 1 1.6643208491730480e+01 1.5682955710061266e+01 7.8392067007148158e+00 0 0 0
1472 1 1.6494312317742846e+01 1.8434929339956859e+01 5.2611859810530452e+00 0 0 0
1662 1 1.9008784564809378e+01 1.5512501076288125e+01 5.2776575587023267e+00 0 0 0
1672 1 1.9286928000210693e+01 1.8497257193950968e+01 7.8844177634843424e+00 0 0 0
1862 1 2.1594818749440631e+01 1.5526731134721368e+01 8.0403972528426149e+00 0 0 0
1872 1 2.1803193987675879e+01 1.8070699357595512e+01 5.0879279767664221e+00 0 0 0
2062 1 2.4384055980134583e+01 1.5412687796127992e+01 5.3506777383765316e+00 0 0 0
2072 1 2.4484194302272005e+01 1.8024455710913482e+01 7.7911568663976354e+00 0 0 0
2262 1 2.7251433802427336e+01 1.5829543342439534e+01 7.9267434488934665e+00 0 0 0
2272 1 2.7235394547835632e+01 1.8234421229513224e+01 5.2188071556008824e+00 0 0 0
2462 1 2.9789881374949026e+01 1.5687417081302874e+01 5.3297392057605197e+00 0 0 0
2472 1 3.0148586666375813e+01 1.8386812346998315e+01 7.9348664935463562e+00 0 0 0
2662 1 3.2515281887132282e+01 1.5515698482374736e+01 7.9194575630512629e+00 0 0 0
2672 1 3.2693798967287364e+01 1.8329049619873093e+01 5.2719361239616251e+00 0 0 0
2862 1 3.5069752791428591e+01 1.5625507299823713e+01 5.2989451731991082e+00 0 0 0
2872 1 3.5342746034213690e+01 1.8382734851842386e+01 8.0311084626944833e+00 0 0 0
82 1 -2.3882898170373954e+00 2.0838525060649712e+01 5.1928558318958986e+00 0 0 0
92 1 -2.2288363065137728e+00 2.3739422281282170e+01 7.8488859185695841e+00 0 0 0
282 1 4.3876026228836867e-01 2.0817396134652341e+01 7.8312776759097513e+00 0 0 0
292 1 4.4752569335456632e-01 2.3597540583684538e+01 5.3571833386984267e+00 0 0 0
482 1 3.3792644476891165e+00 2.0833674880410488e+01 5.2986874623657529e+00 0 0 0
492 1 3.3500696796163716e+00 2.3418666988815975e+01 7.7266918539856677e+00 0 0 0
682 1 6.0204355188909684e+00 2.0851274964116012e+01 7.7718183618306727e+00 0 0 0
692 1 5.7373198192742834e+00 2.3593155813557981e+01 4.9535742939969483e+00 0 0 0
882 1 8.5122401674535642e+00 2.1200966944392640e+01 5.2336431391404421e+00 0 0 0
892 1 8.3021136391433750e+00 2.3524492495471861e+01 8.0242307936794290e+00 0 0 0
1082 1 1.1191357846215656e+01 2.1040377158712193e+01 7.9776019281606096e+00 0 0 0
1092 1 1.1176843698470451e+01 2.3820917857481369e+01 5.1017742500886740e+00 0 0 0
1282 1 1.3742010740936129e+01 2.0794021618544974e+01 5.4045138446606913e+00 0 0 0
1292 1 1.4243811802721572e+01 2.3646672901365982e+01 7.8964018408470018e+00 0 0 0
1482 1 1.6530744847442470e+01 2.0926002029198237e+01 8.0490719582633670e+00 0 0 0
1492 1 1.6622436796129023e+01 2.3465978629528568e+01 5.1343974152236749e+00 0 0 0
1692 1 1.9022652513740383e+01 2.3515647286725592e+01 7.9521813965457246e+00 0 0 0
1682 1 1.9216489142421526e+01 2.0870645879962296e+01 5.2878965806865388e+00 0 0 0
1882 1 2.1791901452900294e+01 2.1020366342246010e+01 7.7318738764819264e+00 0 0 0
1892 1 2.1786194886693927e+01 2.3681412923210686e+01 5.0583327008096957e+00 0 0 0
2082 1 2.4333992634653541e+01 2.0956625346636319e+01 5.1357744505741021e+00 0 0 0
2092 1 2.4652826980917840e+01 2.3638957660623628e+01 7.5109089878279951e+00 0 0 0
2282 1 2.7230577156639651e+01 2.0919979029060642e+01 7.7647841135201459e+00 0 0 0
2292 1 2.7081792274937211e+01 2.3594249918617180e+01 4.9723081091932677e+00 0 0 0
2482 1 2.9932869368525392e+01 2.0893131570963281e+01 5.3186660548958598e+00 0 0 0
2492 1 2.9871871114334798e+01 2.3630714102844447e+01 7.7495208850143156e+00 0 0 0
2682 1 3.2622014261414556e+01 2.1117868201703736e+01 7.8362265165197602e+00 0 0 0
2692 1 3.2550343446767506e+01 2.3770702015856173e+01 5.1669579360588722e+00 0 0 0
2882 1 3.5131295930718935e+01 2.0937671528165239e+01 5.3052509533429966e+00 0 0 0
2892 1 3.5383368855643205e+01 2.3803311686333810e+01 7.8148480821143673e+00 0 0 0
3 1 -2.2315878672446487e+00 -3.2534621056388058e-01 1.0326955782725728e+01 0 0 0
13 1 -2.3133022113947361e+00 2.2762259105843645e+00 1.3057604630474922e+01 0 0 0
203 1 3.8657058643340386e-01 -3.7409709547830411e-01 1.2949642804759343e+01 0 0 0
213 1 3.7380834885149655e-01 2.4571763404572269e+00 1.0292124789741960e+01 0 0 0
403 1 3.0547424612408598e+00 -2.8442853909601401e-01 1.0665035945766011e+01 0 0 0
413 1 2.9927907538078009e+00 2.4091168157547340e+00 1.3056235156950146e+01 0 0 0
603 1 5.7754491565747106e+00 -2.7453168542140621e-01 1.3240739540112848e+01 0 0 0
613 1 5.7568916410868418e+00 2.0999330392667104e+00 1.0549247269560874e+01 0 0 0
803 1 8.7400262144708787e+00 -4.1770063629334053e-01 1.0475688057794006e+01 0 0 0
813 1 8.6515024749204255e+00 2.4850170363121573e+00 1.3087314934129655e+01 0 0 0
1003 1 1.1624187460655930e+01 -1.8073920111346198e-01 1.3127001888266829e+01 0 0 0
1013 1 1.1305832533583674e+01 2.3152414611444416e+00 1.0445245844661898e+01 0 0 0
1203 1 1.4055329896502244e+01 -1.4186151072950945e-01 1.0453452218789112e+01 0 0 0
1213 1 1.3858709837084387e+01 2.5143023447681343e+00 1.3245607721397654e+01 0 0 0
1403 1 1.6599639357487131e+01 -4.2688217726721538e-02 1.3153659537176971e+01 0 0 0
1413 1 1.6673594577805599e+01 2.3624799472368774e+00 1.0765488290918475e+01 0 0 0
1603 1 1.9264193689154201e+01 -3.3997321139277897e-01 1.0544457454368654e+01 0 0 0
1613 1 1.9326842365433617e+01 2.1599849420757038e+00 1.3420886015445072e+01 0 0 0
1803 1 2.1940307576609314e+01 -4.1710635008307673e-01 1.3089912859549496e+01 0 0 0
1813 1 2.1959034376011481e+01 2.2646376267676755e+00 1.0293244257925807e+01 0 0 0
2013 1 2.4620495090816231e+01 2.1330121244552442e+00 1.3004856813148201e+01 0 0 0
2003 1 2.4530625691107190e+01 -4.4510598309194793e-01 1.0398018656208663e+01 0 0 0
2203 1 2.7435161183610575e+01 -5.6649589860855953e-01 1.3022608336891031e+01 0 0 0
2213 1 2.7346879091850859e+01 2.1598129099152943e+00 1.0808868713905866e+01 0 0 0
2403 1 3.0166014384011355e+01 -3.7452001007074126e-01 1.0467422886566668e+01 0 0 0
2413 1 3.0010219208051296e+01 2.0617063305775378e+00 1.3210190226319034e+01 0 0 0
2603 1 3.2690676423073526e+01 -5.9075923225341243e-01 1.3189627415870444e+01 0 0 0
2613 1 3.2581293005796766e+01 2.2547744345752672e+00 1.0683453853952203e+01 0 0 0
2803 1 3.5383355648157966e+01 -4.3234548949335105e-01 1.0278980904306188e+01 0 0 0
2813 1 3.5143942064560598e+01 2.1295981007639933e+00 1.3144854838378029e+01 0 0 0
23 1 -2.2652937781774272e+00 5.0432919260097258e+00 1.0302590339793571e+01 0 0 0
33 1 -2.2910752077949494e+00 7.5221937385469246e+00 1.3080742521866156e+01 0 0 0
223 1 3.3973509542520292e-01 4.8399564182459169e+00 1.2941983519685309e+01 0 0 0
233 1 5.9568674826188528e-01 7.5285617589365215e+00 1.0629825573189512e+01 0 0 0
423 1 3.3815054860557527e+00 5.1279490560427892e+00 1.0634272853060246e+01 0 0 0
433 1 3.1838045888417441e+00 7.8217228109145047e+00 1.3434570793561926e+01 0 0 0
623 1 5.9831410147760913e+00 4.8373830824412076e+00 1.3211523365353568e+01 0 0 0
633 1 5.8769453740636255e+00 7.5337651829144141e+00 1.0785832647451173e+01 0 0 0
823 1 8.6159121622491153e+00 5.2200746348816986e+00 1.0545393696480559e+01 0 0 0
833 1 8.4630689465431761e+00 7.4364361724752897e+00 1.3250156909175290e+01 0 0 0
1023 1 1.1374647219736735e+01 4.9531431352491921e+00 1.2961241383375979e+01 0 0 0
1033 1 1.1370995537761658e+01 7.7399935327960030e+00 1.0516452733338221e+01 0 0 0
1233 1 1.3978305952840552e+01 7.5992299901453793e+00 1.3252562568901435e+01 0 0 0
1223 1 1.4012736619486393e+01 4.9975400224760822e+00 1.0628396567250670e+01 0 0 0
1423 1 1.6626528534830971e+01 5.0140751170802966e+00 1.3366072478722817e+01 0 0 0
1433 1 1.6508341425647956e+01 7.6218033024482326e+00 1.0598642026803903e+01 0 0 0
1623 1 1.9111349032485133e+01 5.0016573846610966e+00 1.0608796926831497e+01 0 0 0
1633 1 1.9174959376799709e+01 7.7203866038702094e+00 1.3142345834174009e+01 0 0 0
1823 1 2.1895420417147697e+01 5.0107509491328175e+00 1.3024338208133255e+01 0 0 0
1833 1 2.1691853246470522e+01 7.7281940665382809e+00 1.0593247671760182e+01 0 0 0
2023 1 2.4532952061472436e+01 4.9043574435731641e+00 1.0559076595722102e+01 0 0 0
2033 1 2.4616867677532824e+01 7.4979900242429611e+00 1.3042284367551686e+01 0 0 0
2223 1 2.7302075334728940e+01 4.8533260874985702e+00 1.3228383129813752e+01 0 0 0
2233 1 2.7286079822002069e+01 7.4978518618629764e+00 1.0663235221602530e+01 0 0 0
2423 1 2.9942654612614376e+01 4.8939361099206753e+00 1.0494755838804009e+01 0 0 0
2433 1 3.0095478294170288e+01 7.6239130080525381e+00 1.3156360059510819e+01 0 0 0
2623 1 3.2935321115061171e+01 5.1726640722171693e+00 1.3116043629679302e+01 0 0 0
2633 1 3.2634736628619862e+01 7.6280598344346959e+00 1.0444481613749367e+01 0 0 0
2823 1 3.5214279113476799e+01 5.0816964807962997e+00 1.0431087309933192e+01 0 0 0
2833 1 3.5316315167664300e+01 7.7421326103438473e+00 1.3398359587212687e+01 0 0 0
43 1 -2.0729096913747620e+00 1.0332605886386174e+01 1.0579131551436566e+01 0 0 0
53 1 -2.0955778104911240e+00 1.3114861254955203e+01 1.3268608400654490e+01 0 0 0