LAMMPS DATA FILE

2048 atoms

2 atom types

-0.678875 86.21712500000001 xlo xhi
-0.678875 21.045125000000002 ylo yhi
-0.678875 21.045125000000002 zlo zhi

Masses

1 28.0855
2 72.64

Atoms

1 1 0.0 0.0 0.0
2 1 0.0 0.0 5.431
3 1 0.0 0.0 10.862
4 1 0.0 0.0 16.293
5 1 0.0 2.7155 2.7155
6 1 0.0 2.7155 8.1465
7 1 0.0 2.7155 13.5775
8 1 0.0 2.7155 19.0085
9 1 0.0 5.431 0.0
10 1 0.0 5.431 5.431
11 1 0.0 5.431 10.862
12 1 0.0 5.431 16.293
13 1 0.0 8.1465 2.7155
14 1 0.0 8.1465 8.1465
15 1 0.0 8.1465 13.5775
16 1 0.0 8.1465 19.0085
17 1 0.0 10.862 0.0
18 1 0.0 10.862 5.431
19 1 0.0 10.862 10.862
20 1 0.0 10.862 16.293
21 1 0.0 13.5775 2.7155
22 1 0.0 13.5775 8.1465
23 1 0.0 13.5775 13.5775
24 1 0.0 13.5775 19.0085
25 1 0.0 16.293 0.0
26 1 0.0 16.293 5.431
27 1 0.0 16.293 10.862
28 1 0.0 16.293 16.293
29 1 0.0 19.0085 2.7155
30 1 0.0 19.0085 8.1465
31 1 0.0 19.0085 13.5775
32 1 0.0 19.0085 19.0085
33 1 1.35775 1.35775 1.35775
34 1 1.35775 1.35775 6.78875
35 1 1.35775 1.35775 12.21975
36 1 1.35775 1.35775 17.65075
37 1 1.35775 4.07325 4.07325
38 1 1.35775 4.07325 9.50425
39 1 1.35775 4.07325 14.93525
40 1 1.35775 4.07325 20.36625
41 1 1.35775 6.78875 1.35775
42 1 1.35775 6.78875 6.78875
43 1 1.35775 6.78875 12.21975
44 1 1.35775 6.78875 17.65075
45 1 1.35775 9.50425 4.07325
46 1 1.35775 9.50425 9.50425
47 1 1.35775 9.50425 14.93525
48 1 1.35775 9.50425 20.36625
49 1 1.35775 12.21975 1.35775
50 1 1.35775 12.21975 6.78875
51 1 1.35775 12.21975 12.21975
52 1 1.35775 12.21975 17.65075
53 1 1.35775 14.93525 4.07325
54 1 1.35775 14.93525 9.50425
55 1 1.35775 14.93525 14.93525
56 1 1.35775 14.93525 20.36625
57 1 1.35775 17.65075 1.35775
58 1 1.35775 17.65075 6.78875
59 1 1.35775 17.65075 12.21975
60 1 1.35775 17.65075 17.65075
61 1 1.35775 20.36625 4.07325
62 1 1.35775 20.36625 9.50425
63 1 1.35775 20.36625 14.93525
64 1 1.35775 20.36625 20.36625
65 1 2.7155 0.0 2.7155
66 1 2.7155 0.0 8.1465
67 1 2.7155 0.0 13.5775
68 1 2.7155 0.0 19.0085
69 1 2.7155 2.7155 0.0
70 1 2.7155 2.7155 5.431
71 1 2.7155 2.7155 10.862
72 1 2.7155 2.7155 16.293
73 1 2.7155 5.431 2.7155
74 1 2.7155 5.431 8.1465
75 1 2.7155 5.431 13.5775
76 1 2.7155 5.431 19.0085
77 1 2.7155 8.1465 0.0
78 1 2.7155 8.1465 5.431
79 1 2.7155 8.1465 10.862
80 1 2.7155 8.1465 16.293
81 1 2.7155 10.862 2.7155
82 1 2.7155 10.862 8.1465
83 1 2.7155 10.862 13.5775
84 1 2.7155 10.862 19.0085
85 1 2.7155 13.5775 0.0
86 1 2.7155 13.5775 5.431
87 1 2.7155 13.5775 10.862
88 1 2.7155 13.5775 16.293
89 1 2.7155 16.293 2.7155
90 1 2.7155 16.293 8.1465
91 1 2.7155 16.293 13.5775
92 1 2.7155 16.293 19.0085
93 1 2.7155 19.0085 0.0
94 1 2.7155 19.0085 5.431
95 1 2.7155 19.0085 10.862
96 1 2.7155 19.0085 16.293
97 1 4.07325 1.35775 4.07325
98 1 4.07325 1.35775 9.50425
99 1 4.07325 1.35775 14.93525
100 1 4.07325 1.35775 20.36625
101 1 4.07325 4.07325 1.35775
102 1 4.07325 4.07325 6.78875
103 1 4.07325 4.07325 12.21975
104 1 4.07325 4.07325 17.65075
105 1 4.07325 6.78875 4.07325
106 1 4.07325 6.78875 9.50425
107 1 4.07325 6.78875 14.93525
108 1 4.07325 6.78875 20.36625
109 1 4.07325 9.50425 1.35775
110 1 4.07325 9.50425 6.78875
111 1 4.07325 9.50425 12.21975
112 1 4.07325 9.50425 17.65075
113 1 4.07325 12.21975 4.07325
114 1 4.07325 12.21975 9.50425
115 1 4.07325 12.21975 14.93525
116 1 4.07325 12.21975 20.36625
117 1 4.07325 14.93525 1.35775
118 1 4.07325 14.93525 6.78875
119 1 4.07325 14.93525 12.21975
120 1 4.07325 14.93525 17.65075
121 1 4.07325 17.65075 4.07325
122 1 4.07325 17.65075 9.50425
123 1 4.07325 17.65075 14.93525
124 1 4.07325 17.65075 20.36625
125 1 4.07325 20.36625 1.35775
126 1 4.07325 20.36625 6.78875
127 1 4.07325 20.36625 12.21975
128 1 4.07325 20.36625 17.65075
129 1 5.431 0.0 0.0
130 1 5.431 0.0 5.431
131 1 5.431 0.0 10.862
132 1 5.431 0.0 16.293
133 1 5.431 2.7155 2.7155
134 1 5.431 2.7155 8.1465
135 1 5.431 2.7155 13.5775
136 1 5.431 2.7155 19.0085
137 1 5.431 5.431 0.0
138 1 5.431 5.431 5.431
139 1 5.431 5.431 10.862
140 1 5.431 5.431 16.293
141 1 5.431 8.1465 2.7155
142 1 5.431 8.1465 8.1465
143 1 5.431 8.1465 13.5775
144 1 5.431 8.1465 19.0085
145 1 5.431 10.862 0.0
146 1 5.431 10.862 5.431
147 1 5.431 10.862 10.862
148 1 5.431 10.862 16.293
149 1 5.431 13.5775 2.7155
150 1 5.431 13.5775 8.1465
151 1 5.431 13.5775 13.5775
152 1 5.431 13.5775 19.0085
153 1 5.431 16.293 0.0
154 1 5.431 16.293 5.431
155 1 5.431 16.293 10.862
156 1 5.431 16.293 16.293
157 1 5.431 19.0085 2.7155
158 1 5.431 19.0085 8.1465
159 1 5.431 19.0085 13.5775
160 1 5.431 19.0085 19.0085
161 1 6.78875 1.35775 1.35775
162 1 6.78875 1.35775 6.78875
163 1 6.78875 1.35775 12.21975
164 1 6.78875 1.35775 17.65075
165 1 6.78875 4.07325 4.07325
166 1 6.78875 4.07325 9.50425
167 1 6.78875 4.07325 14.93525
168 1 6.78875 4.07325 20.36625
169 1 6.78875 6.78875 1.35775
170 1 6.78875 6.78875 6.78875
171 1 6.78875 6.78875 12.21975
172 1 6.78875 6.78875 17.65075
173 1 6.78875 9.50425 4.07325
174 1 6.78875 9.50425 9.50425
175 1 6.78875 9.50425 14.93525
176 1 6.78875 9.50425 20.36625
177 1 6.78875 12.21975 1.35775
178 1 6.78875 12.21975 6.78875
179 1 6.78875 12.21975 12.21975
180 1 6.78875 12.21975 17.65075
181 1 6.78875 14.93525 4.07325
182 1 6.78875 14.93525 9.50425
183 1 6.78875 14.93525 14.93525
184 1 6.78875 14.93525 20.36625
185 1 6.78875 17.65075 1.35775
186 1 6.78875 17.65075 6.78875
187 1 6.78875 17.65075 12.21975
188 1 6.78875 17.65075 17.65075
189 1 6.78875 20.36625 4.07325
190 1 6.78875 20.36625 9.50425
191 1 6.78875 20.36625 14.93525
192 1 6.78875 20.36625 20.36625
193 1 8.1465 0.0 2.7155
194 1 8.1465 0.0 8.1465
195 1 8.1465 0.0 13.5775
196 1 8.1465 0.0 19.0085
197 1 8.1465 2.7155 0.0
198 1 8.1465 2.7155 5.431
199 1 8.1465 2.7155 10.862
200 1 8.1465 2.7155 16.293
201 1 8.1465 5.431 2.7155
202 1 8.1465 5.431 8.1465
203 1 8.1465 5.431 13.5775
204 1 8.1465 5.431 19.0085
205 1 8.1465 8.1465 0.0
206 1 8.1465 8.1465 5.431
207 1 8.1465 8.1465 10.862
208 1 8.1465 8.1465 16.293
209 1 8.1465 10.862 2.7155
210 1 8.1465 10.862 8.1465
211 1 8.1465 10.862 13.5775
212 1 8.1465 10.862 19.0085
213 1 8.1465 13.5775 0.0
214 1 8.1465 13.5775 5.431
215 1 8.1465 13.5775 10.862
216 1 8.1465 13.5775 16.293
217 1 8.1465 16.293 2.7155
218 1 8.1465 16.293 8.1465
219 1 8.1465 16.293 13.5775
220 1 8.1465 16.293 19.0085
221 1 8.1465 19.0085 0.0
222 1 8.1465 19.0085 5.431
223 1 8.1465 19.0085 10.862
224 1 8.1465 19.0085 16.293
225 1 9.50425 1.35775 4.07325
226 1 9.50425 1.35775 9.50425
227 1 9.50425 1.35775 14.93525
228 1 9.50425 1.35775 20.36625
229 1 9.50425 4.07325 1.35775
230 1 9.50425 4.07325 6.78875
231 1 9.50425 4.07325 12.21975
232 1 9.50425 4.07325 17.65075
233 1 9.50425 6.78875 4.07325
234 1 9.50425 6.78875 9.50425
235 1 9.50425 6.78875 14.93525
236 1 9.50425 6.78875 20.36625
237 1 9.50425 9.50425 1.35775
238 1 9.50425 9.50425 6.78875
239 1 9.50425 9.50425 12.21975
240 1 9.50425 9.50425 17.65075
241 1 9.50425 12.21975 4.07325
242 1 9.50425 12.21975 9.50425
243 1 9.50425 12.21975 14.93525
244 1 9.50425 12.21975 20.36625
245 1 9.50425 14.93525 1.35775
246 1 9.50425 14.93525 6.78875
247 1 9.50425 14.93525 12.21975
248 1 9.50425 14.93525 17.65075
249 1 9.50425 17.65075 4.07325
250 1 9.50425 17.65075 9.50425
251 1 9.50425 17.65075 14.93525
252 1 9.50425 17.65075 20.36625
253 1 9.50425 20.36625 1.35775
254 1 9.50425 20.36625 6.78875
255 1 9.50425 20.36625 12.21975
256 1 9.50425 20.36625 17.65075
257 1 10.862 0.0 0.0
258 1 10.862 0.0 5.431
259 1 10.862 0.0 10.862
260 1 10.862 0.0 16.293
261 1 10.862 2.7155 2.7155
262 1 10.862 2.7155 8.1465
263 1 10.862 2.7155 13.5775
264 1 10.862 2.7155 19.0085
265 1 10.862 5.431 0.0
266 1 10.862 5.431 5.431
267 1 10.862 5.431 10.862
268 1 10.862 5.431 16.293
269 1 10.862 8.1465 2.7155
270 1 10.862 8.1465 8.1465
271 1 10.862 8.1465 13.5775
272 1 10.862 8.1465 19.0085
273 1 10.862 10.862 0.0
274 1 10.862 10.862 5.431
275 1 10.862 10.862 10.862
276 1 10.862 10.862 16.293
277 1 10.862 13.5775 2.7155
278 1 10.862 13.5775 8.1465
279 1 10.862 13.5775 13.5775
280 1 10.862 13.5775 19.0085
281 1 10.862 16.293 0.0
282 1 10.862 16.293 5.431
283 1 10.862 16.293 10.862
284 1 10.862 16.293 16.293
285 1 10.862 19.0085 2.7155
286 1 10.862 19.0085 8.1465
287 1 10.862 19.0085 13.5775
288 1 10.862 19.0085 19.0085
289 1 12.21975 1.35775 1.35775
290 1 12.21975 1.35775 6.78875
291 1 12.21975 1.35775 12.21975
292 1 12.21975 1.35775 17.65075
293 1 12.21975 4.07325 4.07325
294 1 12.21975 4.07325 9.50425
295 1 12.21975 4.07325 14.93525
296 1 12.21975 4.07325 20.36625
297 1 12.21975 6.78875 1.35775
298 1 12.21975 6.78875 6.78875
299 1 12.21975 6.78875 12.21975
300 1 12.21975 6.78875 17.65075
301 1 12.21975 9.50425 4.07325
302 1 12.21975 9.50425 9.50425
303 1 12.21975 9.50425 14.93525
304 1 12.21975 9.50425 20.36625
305 1 12.21975 12.21975 1.35775
306 1 12.21975 12.21975 6.78875
307 1 12.21975 12.21975 12.21975
308 1 12.21975 12.21975 17.65075
309 1 12.21975 14.93525 4.07325
310 1 12.21975 14.93525 9.50425
311 1 12.21975 14.93525 14.93525
312 1 12.21975 14.93525 20.36625
313 1 12.21975 17.65075 1.35775
314 1 12.21975 17.65075 6.78875
315 1 12.21975 17.65075 12.21975
316 1 12.21975 17.65075 17.65075
317 1 12.21975 20.36625 4.07325
318 1 12.21975 20.36625 9.50425
319 1 12.21975 20.36625 14.93525
320 1 12.21975 20.36625 20.36625
321 1 13.5775 0.0 2.7155
322 1 13.5775 0.0 8.1465
323 1 13.5775 0.0 13.5775
324 1 13.5775 0.0 19.0085
325 1 13.5775 2.7155 0.0
326 1 13.5775 2.7155 5.431
327 1 13.5775 2.7155 10.862
328 1 13.5775 2.7155 16.293
329 1 13.5775 5.431 2.7155
330 1 13.5775 5.431 8.1465
331 1 13.5775 5.431 13.5775
332 1 13.5775 5.431 19.0085
333 1 13.5775 8.1465 0.0
334 1 13.5775 8.1465 5.431
335 1 13.5775 8.1465 10.862
336 1 13.5775 8.1465 16.293
337 1 13.5775 10.862 2.7155
338 1 13.5775 10.862 8.1465
339 1 13.5775 10.862 13.5775
340 1 13.5775 10.862 19.0085
341 1 13.5775 13.5775 0.0
342 1 13.5775 13.5775 5.431
343 1 13.5775 13.5775 10.862
344 1 13.5775 13.5775 16.293
345 1 13.5775 16.293 2.7155
346 1 13.5775 16.293 8.1465
347 1 13.5775 16.293 13.5775
348 1 13.5775 16.293 19.0085
349 1 13.5775 19.0085 0.0
350 1 13.5775 19.0085 5.431
351 1 13.5775 19.0085 10.862
352 1 13.5775 19.0085 16.293
353 1 14.93525 1.35775 4.07325
354 1 14.93525 1.35775 9.50425
355 1 14.93525 1.35775 14.93525
356 1 14.93525 1.35775 20.36625
357 1 14.93525 4.07325 1.35775
358 1 14.93525 4.07325 6.78875
359 1 14.93525 4.07325 12.21975
360 1 14.93525 4.07325 17.65075
361 1 14.93525 6.78875 4.07325
362 1 14.93525 6.78875 9.50425
363 1 14.93525 6.78875 14.93525
364 1 14.93525 6.78875 20.36625
365 1 14.93525 9.50425 1.35775
366 1 14.93525 9.50425 6.78875
367 1 14.93525 9.50425 12.21975
368 1 14.93525 9.50425 17.65075
369 1 14.93525 12.21975 4.07325
370 1 14.93525 12.21975 9.50425
371 1 14.93525 12.21975 14.93525
372 1 14.93525 12.21975 20.36625
373 1 14.93525 14.93525 1.35775
374 1 14.93525 14.93525 6.78875
375 1 14.93525 14.93525 12.21975
376 1 14.93525 14.93525 17.65075
377 1 14.93525 17.65075 4.07325
378 1 14.93525 17.65075 9.50425
379 1 14.93525 17.65075 14.93525
380 1 14.93525 17.65075 20.36625
381 1 14.93525 20.36625 1.35775
382 1 14.93525 20.36625 6.78875
383 1 14.93525 20.36625 12.21975
384 1 14.93525 20.36625 17.65075
385 1 16.293 0.0 0.0
386 1 16.293 0.0 5.431
387 1 16.293 0.0 10.862
388 1 16.293 0.0 16.293
389 1 16.293 2.7155 2.7155
390 1 16.293 2.7155 8.1465
391 1 16.293 2.7155 13.5775
392 1 16.293 2.7155 19.0085
393 1 16.293 5.431 0.0
394 1 16.293 5.431 5.431
395 1 16.293 5.431 10.862
396 1 16.293 5.431 16.293
397 1 16.293 8.1465 2.7155
398 1 16.293 8.1465 8.1465
399 1 16.293 8.1465 13.5775
400 1 16.293 8.1465 19.0085
401 1 16.293 10.862 0.0
402 1 16.293 10.862 5.431
403 1 16.293 10.862 10.862
404 1 16.293 10.862 16.293
405 1 16.293 13.5775 2.7155
406 1 16.293 13.5775 8.1465
407 1 16.293 13.5775 13.5775
408 1 16.293 13.5775 19.0085
409 1 16.293 16.293 0.0
410 1 16.293 16.293 5.431
411 1 16.293 16.293 10.862
412 1 16.293 16.293 16.293
413 1 16.293 19.0085 2.7155
414 1 16.293 19.0085 8.1465
415 1 16.293 19.0085 13.5775
416 1 16.293 19.0085 19.0085
417 1 17.65075 1.35775 1.35775
418 1 17.65075 1.35775 6.78875
419 1 17.65075 1.35775 12.21975
420 1 17.65075 1.35775 17.65075
421 1 17.65075 4.07325 4.07325
422 1 17.65075 4.07325 9.50425
423 1 17.65075 4.07325 14.93525
424 1 17.65075 4.07325 20.36625
425 1 17.65075 6.78875 1.35775
426 1 17.65075 6.78875 6.78875
427 1 17.65075 6.78875 12.21975
428 1 17.65075 6.78875 17.65075
429 1 17.65075 9.50425 4.07325
430 1 17.65075 9.50425 9.50425
431 1 17.65075 9.50425 14.93525
432 1 17.65075 9.50425 20.36625
433 1 17.65075 12.21975 1.35775
434 1 17.65075 12.21975 6.78875
435 1 17.65075 12.21975 12.21975
436 1 17.65075 12.21975 17.65075
437 1 17.65075 14.93525 4.07325
438 1 17.65075 14.93525 9.50425
439 1 17.65075 14.93525 14.93525
440 1 17.65075 14.93525 20.36625
441 1 17.65075 17.65075 1.35775
442 1 17.65075 17.65075 6.78875
443 1 17.65075 17.65075 12.21975
444 1 17.65075 17.65075 17.65075
445 1 17.65075 20.36625 4.07325
446 1 17.65075 20.36625 9.50425
447 1 17.65075 20.36625 14.93525
448 1 17.65075 20.36625 20.36625
449 1 19.0085 0.0 2.7155
450 1 19.0085 0.0 8.1465
451 1 19.0085 0.0 13.5775
452 1 19.0085 0.0 19.0085
453 1 19.0085 2.7155 0.0
454 1 19.0085 2.7155 5.431
455 1 19.0085 2.7155 10.862
456 1 19.0085 2.7155 16.293
457 1 19.0085 5.431 2.7155
458 1 19.0085 5.431 8.1465
459 1 19.0085 5.431 13.5775
460 1 19.0085 5.431 19.0085
461 1 19.0085 8.1465 0.0
462 1 19.0085 8.1465 5.431
463 1 19.0085 8.1465 10.862
464 1 19.0085 8.1465 16.293
465 1 19.0085 10.862 2.7155
466 1 19.0085 10.862 8.1465
467 1 19.0085 10.862 13.5775
468 1 19.0085 10.862 19.0085
469 1 19.0085 13.5775 0.0
470 1 19.0085 13.5775 5.431
471 1 19.0085 13.5775 10.862
472 1 19.0085 13.5775 16.293
473 1 19.0085 16.293 2.7155
474 1 19.0085 16.293 8.1465
475 1 19.0085 16.293 13.5775
476 1 19.0085 16.293 19.0085
477 1 19.0085 19.0085 0.0
478 1 19.0085 19.0085 5.431
479 1 19.0085 19.0085 10.862
480 1 19.0085 19.0085 16.293
481 1 20.36625 1.35775 4.07325
482 1 20.36625 1.35775 9.50425
483 1 20.36625 1.35775 14.93525
484 1 20.36625 1.35775 20.36625
485 1 20.36625 4.07325 1.35775
486 1 20.36625 4.07325 6.78875
487 1 20.36625 4.07325 12.21975
488 1 20.36625 4.07325 17.65075
489 1 20.36625 6.78875 4.07325
490 1 20.36625 6.78875 9.50425
491 1 20.36625 6.78875 14.93525
492 1 20.36625 6.78875 20.36625
493 1 20.36625 9.50425 1.35775
494 1 20.36625 9.50425 6.78875
495 1 20.36625 9.50425 12.21975
496 1 20.36625 9.50425 17.65075
497 1 20.36625 12.21975 4.07325
498 1 20.36625 12.21975 9.50425
499 1 20.36625 12.21975 14.93525
500 1 20.36625 12.21975 20.36625
501 1 20.36625 14.93525 1.35775
502 1 20.36625 14.93525 6.78875
503 1 20.36625 14.93525 12.21975
504 1 20.36625 14.93525 17.65075
505 1 20.36625 17.65075 4.07325
506 1 20.36625 17.65075 9.50425
507 1 20.36625 17.65075 14.93525
508 1 20.36625 17.65075 20.36625
509 1 20.36625 20.36625 1.35775
510 1 20.36625 20.36625 6.78875
511 1 20.36625 20.36625 12.21975
512 1 20.36625 20.36625 17.65075
513 1 21.724 0.0 0.0
514 1 21.724 0.0 5.431
515 1 21.724 0.0 10.862
516 1 21.724 0.0 16.293
517 1 21.724 2.7155 2.7155
518 1 21.724 2.7155 8.1465
519 1 21.724 2.7155 13.5775
520 1 21.724 2.7155 19.0085
521 1 21.724 5.431 0.0
522 1 21.724 5.431 5.431
523 1 21.724 5.431 10.862
524 1 21.724 5.431 16.293
525 1 21.724 8.1465 2.7155
526 1 21.724 8.1465 8.1465
527 1 21.724 8.1465 13.5775
528 1 21.724 8.1465 19.0085
529 1 21.724 10.862 0.0
530 1 21.724 10.862 5.431
531 1 21.724 10.862 10.862
532 1 21.724 10.862 16.293
533 1 21.724 13.5775 2.7155
534 1 21.724 13.5775 8.1465
535 1 21.724 13.5775 13.5775
536 1 21.724 13.5775 19.0085
537 1 21.724 16.293 0.0
538 1 21.724 16.293 5.431
539 1 21.724 16.293 10.862
540 1 21.724 16.293 16.293
541 1 21.724 19.0085 2.7155
542 1 21.724 19.0085 8.1465
543 1 21.724 19.0085 13.5775
544 1 21.724 19.0085 19.0085
545 1 23.08175 1.35775 1.35775
546 1 23.08175 1.35775 6.78875
547 1 23.08175 1.35775 12.21975
548 1 23.08175 1.35775 17.65075
549 1 23.08175 4.07325 4.07325
550 1 23.08175 4.07325 9.50425
551 1 23.08175 4.07325 14.93525
552 1 23.08175 4.07325 20.36625
553 1 23.08175 6.78875 1.35775
554 1 23.08175 6.78875 6.78875
555 1 23.08175 6.78875 12.21975
556 1 23.08175 6.78875 17.65075
557 1 23.08175 9.50425 4.07325
558 1 23.08175 9.50425 9.50425
559 1 23.08175 9.50425 14.93525
560 1 23.08175 9.50425 20.36625
561 1 23.08175 12.21975 1.35775
562 1 23.08175 12.21975 6.78875
563 1 23.08175 12.21975 12.21975
564 1 23.08175 12.21975 17.65075
565 1 23.08175 14.93525 4.07325
566 1 23.08175 14.93525 9.50425
567 1 23.08175 14.93525 14.93525
568 1 23.08175 14.93525 20.36625
569 1 23.08175 17.65075 1.35775
570 1 23.08175 17.65075 6.78875
571 1 23.08175 17.65075 12.21975
572 1 23.08175 17.65075 17.65075
573 1 23.08175 20.36625 4.07325
574 1 23.08175 20.36625 9.50425
575 1 23.08175 20.36625 14.93525
576 1 23.08175 20.36625 20.36625
577 1 24.4395 0.0 2.7155
578 1 24.4395 0.0 8.1465
579 1 24.4395 0.0 13.5775
580 1 24.4395 0.0 19.0085
581 1 24.4395 2.7155 0.0
582 1 24.4395 2.7155 5.431
583 1 24.4395 2.7155 10.862
584 1 24.4395 2.7155 16.293
585 1 24.4395 5.431 2.7155
586 1 24.4395 5.431 8.1465
587 1 24.4395 5.431 13.5775
588 1 24.4395 5.431 19.0085
589 1 24.4395 8.1465 0.0
590 1 24.4395 8.1465 5.431
591 1 24.4395 8.1465 10.862
592 1 24.4395 8.1465 16.293
593 1 24.4395 10.862 2.7155
594 1 24.4395 10.862 8.1465
595 1 24.4395 10.862 13.5775
596 1 24.4395 10.862 19.0085
597 1 24.4395 13.5775 0.0
598 1 24.4395 13.5775 5.431
599 1 24.4395 13.5775 10.862
600 1 24.4395 13.5775 16.293
601 1 24.4395 16.293 2.7155
602 1 24.4395 16.293 8.1465
603 1 24.4395 16.293 13.5775
604 1 24.4395 16.293 19.0085
605 1 24.4395 19.0085 0.0
606 1 24.4395 19.0085 5.431
607 1 24.4395 19.0085 10.862
608 1 24.4395 19.0085 16.293
609 1 25.797250000000002 1.35775 4.07325
610 1 25.797250000000002 1.35775 9.50425
611 1 25.797250000000002 1.35775 14.93525
612 1 25.797250000000002 1.35775 20.36625
613 1 25.797250000000002 4.07325 1.35775
614 1 25.797250000000002 4.07325 6.78875
615 1 25.797250000000002 4.07325 12.21975
616 1 25.797250000000002 4.07325 17.65075
617 1 25.797250000000002 6.78875 4.07325
618 1 25.797250000000002 6.78875 9.50425
619 1 25.797250000000002 6.78875 14.93525
620 1 25.797250000000002 6.78875 20.36625
621 1 25.797250000000002 9.50425 1.35775
622 1 25.797250000000002 9.50425 6.78875
623 1 25.797250000000002 9.50425 12.21975
624 1 25.797250000000002 9.50425 17.65075
625 1 25.797250000000002 12.21975 4.07325
626 1 25.797250000000002 12.21975 9.50425
627 1 25.797250000000002 12.21975 14.93525
628 1 25.797250000000002 12.21975 20.36625
629 1 25.797250000000002 14.93525 1.35775
630 1 25.797250000000002 14.93525 6.78875
631 1 25.797250000000002 14.93525 12.21975
632 1 25.797250000000002 14.93525 17.65075
633 1 25.797250000000002 17.65075 4.07325
634 1 25.797250000000002 17.65075 9.50425
635 1 25.797250000000002 17.65075 14.93525
636 1 25.797250000000002 17.65075 20.36625
637 1 25.797250000000002 20.36625 1.35775
638 1 25.797250000000002 20.36625 6.78875
639 1 25.797250000000002 20.36625 12.21975
640 1 25.797250000000002 20.36625 17.65075
641 1 27.155 0.0 0.0
642 1 27.155 0.0 5.431
643 1 27.155 0.0 10.862
644 1 27.155 0.0 16.293
645 1 27.155 2.7155 2.7155
646 1 27.155 2.7155 8.1465
647 1 27.155 2.7155 13.5775
648 1 27.155 2.7155 19.0085
649 1 27.155 5.431 0.0
650 1 27.155 5.431 5.431
651 1 27.155 5.431 10.862
652 1 27.155 5.431 16.293
653 1 27.155 8.1465 2.7155
654 1 27.155 8.1465 8.1465
655 1 27.155 8.1465 13.5775
656 1 27.155 8.1465 19.0085
657 1 27.155 10.862 0.0
658 1 27.155 10.862 5.431
659 1 27.155 10.862 10.862
660 1 27.155 10.862 16.293
661 1 27.155 13.5775 2.7155
662 1 27.155 13.5775 8.1465
663 1 27.155 13.5775 13.5775
664 1 27.155 13.5775 19.0085
665 1 27.155 16.293 0.0
666 1 27.155 16.293 5.431
667 1 27.155 16.293 10.862
668 1 27.155 16.293 16.293
669 1 27.155 19.0085 2.7155
670 1 27.155 19.0085 8.1465
671 1 27.155 19.0085 13.5775
672 1 27.155 19.0085 19.0085
673 1 28.51275 1.35775 1.35775
674 1 28.51275 1.35775 6.78875
675 1 28.51275 1.35775 12.21975
676 1 28.51275 1.35775 17.65075
677 1 28.51275 4.07325 4.07325
678 1 28.51275 4.07325 9.50425
679 1 28.51275 4.07325 14.93525
680 1 28.51275 4.07325 20.36625
681 1 28.51275 6.78875 1.35775
682 1 28.51275 6.78875 6.78875
683 1 28.51275 6.78875 12.21975
684 1 28.51275 6.78875 17.65075
685 1 28.51275 9.50425 4.07325
686 1 28.51275 9.50425 9.50425
687 1 28.51275 9.50425 14.93525
688 1 28.51275 9.50425 20.36625
689 1 28.51275 12.21975 1.35775
690 1 28.51275 12.21975 6.78875
691 1 28.51275 12.21975 12.21975
692 1 28.51275 12.21975 17.65075
693 1 28.51275 14.93525 4.07325
694 1 28.51275 14.93525 9.50425
695 1 28.51275 14.93525 14.93525
696 1 28.51275 14.93525 20.36625
697 1 28.51275 17.65075 1.35775
698 1 28.51275 17.65075 6.78875
699 1 28.51275 17.65075 12.21975
700 1 28.51275 17.65075 17.65075
701 1 28.51275 20.36625 4.07325
702 1 28.51275 20.36625 9.50425
703 1 28.51275 20.36625 14.93525
704 1 28.51275 20.36625 20.36625
705 1 29.8705 0.0 2.7155
706 1 29.8705 0.0 8.1465
707 1 29.8705 0.0 13.5775
708 1 29.8705 0.0 19.0085
709 1 29.8705 2.7155 0.0
710 1 29.8705 2.7155 5.431
711 1 29.8705 2.7155 10.862
712 1 29.8705 2.7155 16.293
713 1 29.8705 5.431 2.7155
714 1 29.8705 5.431 8.1465
715 1 29.8705 5.431 13.5775
716 1 29.8705 5.431 19.0085
717 1 29.8705 8.1465 0.0
718 1 29.8705 8.1465 5.431
719 1 29.8705 8.1465 10.862
720 1 29.8705 8.1465 16.293
721 1 29.8705 10.862 2.7155
722 1 29.8705 10.862 8.1465
723 1 29.8705 10.862 13.5775
724 1 29.8705 10.862 19.0085
725 1 29.8705 13.5775 0.0
726 1 29.8705 13.5775 5.431
727 1 29.8705 13.5775 10.862
728 1 29.8705 13.5775 16.293
729 1 29.8705 16.293 2.7155
730 1 29.8705 16.293 8.1465
731 1 29.8705 16.293 13.5775
732 1 29.8705 16.293 19.0085
733 1 29.8705 19.0085 0.0
734 1 29.8705 19.0085 5.431
735 1 29.8705 19.0085 10.862
736 1 29.8705 19.0085 16.293
737 1 31.22825 1.35775 4.07325
738 1 31.22825 1.35775 9.50425
739 1 31.22825 1.35775 14.93525
740 1 31.22825 1.35775 20.36625
741 1 31.22825 4.07325 1.35775
742 1 31.22825 4.07325 6.78875
743 1 31.22825 4.07325 12.21975
744 1 31.22825 4.07325 17.65075
745 1 31.22825 6.78875 4.07325
746 1 31.22825 6.78875 9.50425
747 1 31.22825 6.78875 14.93525
748 1 31.22825 6.78875 20.36625
749 1 31.22825 9.50425 1.35775
750 1 31.22825 9.50425 6.78875
751 1 31.22825 9.50425 12.21975
752 1 31.22825 9.50425 17.65075
753 1 31.22825 12.21975 4.07325
754 1 31.22825 12.21975 9.50425
755 1 31.22825 12.21975 14.93525
756 1 31.22825 12.21975 20.36625
757 1 31.22825 14.93525 1.35775
758 1 31.22825 14.93525 6.78875
759 1 31.22825 14.93525 12.21975
760 1 31.22825 14.93525 17.65075
761 1 31.22825 17.65075 4.07325
762 1 31.22825 17.65075 9.50425
763 1 31.22825 17.65075 14.93525
764 1 31.22825 17.65075 20.36625
765 1 31.22825 20.36625 1.35775
766 1 31.22825 20.36625 6.78875
767 1 31.22825 20.36625 12.21975
768 1 31.22825 20.36625 17.65075
769 1 32.586 0.0 0.0
770 1 32.586 0.0 5.431
771 1 32.586 0.0 10.862
772 1 32.586 0.0 16.293
773 1 32.586 2.7155 2.7155
774 1 32.586 2.7155 8.1465
775 1 32.586 2.7155 13.5775
776 1 32.586 2.7155 19.0085
777 1 32.586 5.431 0.0
778 1 32.586 5.431 5.431
779 1 32.586 5.431 10.862
780 1 32.586 5.431 16.293
781 1 32.586 8.1465 2.7155
782 1 32.586 8.1465 8.1465
783 1 32.586 8.1465 13.5775
784 1 32.586 8.1465 19.0085
785 1 32.586 10.862 0.0
786 1 32.586 10.862 5.431
787 1 32.586 10.862 10.862
788 1 32.586 10.862 16.293
789 1 32.586 13.5775 2.7155
790 1 32.586 13.5775 8.1465
791 1 32.586 13.5775 13.5775
792 1 32.586 13.5775 19.0085
793 1 32.586 16.293 0.0
794 1 32.586 16.293 5.431
795 1 32.586 16.293 10.862
796 1 32.586 16.293 16.293
797 1 32.586 19.0085 2.7155
798 1 32.586 19.0085 8.1465
799 1 32.586 19.0085 13.5775
800 1 32.586 19.0085 19.0085
801 1 33.94375 1.35775 1.35775
802 1 33.94375 1.35775 6.78875
803 1 33.94375 1.35775 12.21975
804 1 33.94375 1.35775 17.65075
805 1 33.94375 4.07325 4.07325
806 1 33.94375 4.07325 9.50425
807 1 33.94375 4.07325 14.93525
808 1 33.94375 4.07325 20.36625
809 1 33.94375 6.78875 1.35775
810 1 33.94375 6.78875 6.78875
811 1 33.94375 6.78875 12.21975
812 1 33.94375 6.78875 17.65075
813 1 33.94375 9.50425 4.07325
814 1 33.94375 9.50425 9.50425
815 1 33.94375 9.50425 14.93525
816 1 33.94375 9.50425 20.36625
817 1 33.94375 12.21975 1.35775
818 1 33.94375 12.21975 6.78875
819 1 33.94375 12.21975 12.21975
820 1 33.94375 12.21975 17.65075
821 1 33.94375 14.93525 4.07325
822 1 33.94375 14.93525 9.50425
823 1 33.94375 14.93525 14.93525
824 1 33.94375 14.93525 20.36625
825 1 33.94375 17.65075 1.35775
826 1 33.94375 17.65075 6.78875
827 1 33.94375 17.65075 12.21975
828 1 33.94375 17.65075 17.65075
829 1 33.94375 20.36625 4.07325
830 1 33.94375 20.36625 9.50425
831 1 33.94375 20.36625 14.93525
832 1 33.94375 20.36625 20.36625
833 1 35.3015 0.0 2.7155
834 1 35.3015 0.0 8.1465
835 1 35.3015 0.0 13.5775
836 1 35.3015 0.0 19.0085
837 1 35.3015 2.7155 0.0
838 1 35.3015 2.7155 5.431
839 1 35.3015 2.7155 10.862
840 1 35.3015 2.7155 16.293
841 1 35.3015 5.431 2.7155
842 1 35.3015 5.431 8.1465
843 1 35.3015 5.431 13.5775
844 1 35.3015 5.431 19.0085
845 1 35.3015 8.1465 0.0
846 1 35.3015 8.1465 5.431
847 1 35.3015 8.1465 10.862
848 1 35.3015 8.1465 16.293
849 1 35.3015 10.862 2.7155
850 1 35.3015 10.862 8.1465
851 1 35.3015 10.862 13.5775
852 1 35.3015 10.862 19.0085
853 1 35.3015 13.5775 0.0
854 1 35.3015 13.5775 5.431
855 1 35.3015 13.5775 10.862
856 1 35.3015 13.5775 16.293
857 1 35.3015 16.293 2.7155
858 1 35.3015 16.293 8.1465
859 1 35.3015 16.293 13.5775
860 1 35.3015 16.293 19.0085
861 1 35.3015 19.0085 0.0
862 1 35.3015 19.0085 5.431
863 1 35.3015 19.0085 10.862
864 1 35.3015 19.0085 16.293
865 1 36.65925 1.35775 4.07325
866 1 36.65925 1.35775 9.50425
867 1 36.65925 1.35775 14.93525
868 1 36.65925 1.35775 20.36625
869 1 36.65925 4.07325 1.35775
870 1 36.65925 4.07325 6.78875
871 1 36.65925 4.07325 12.21975
872 1 36.65925 4.07325 17.65075
873 1 36.65925 6.78875 4.07325
874 1 36.65925 6.78875 9.50425
875 1 36.65925 6.78875 14.93525
876 1 36.65925 6.78875 20.36625
877 1 36.65925 9.50425 1.35775
878 1 36.65925 9.50425 6.78875
879 1 36.65925 9.50425 12.21975
880 1 36.65925 9.50425 17.65075
881 1 36.65925 12.21975 4.07325
882 1 36.65925 12.21975 9.50425
883 1 36.65925 12.21975 14.93525
884 1 36.65925 12.21975 20.36625
885 1 36.65925 14.93525 1.35775
886 1 36.65925 14.93525 6.78875
887 1 36.65925 14.93525 12.21975
888 1 36.65925 14.93525 17.65075
889 1 36.65925 17.65075 4.07325
890 1 36.65925 17.65075 9.50425
891 1 36.65925 17.65075 14.93525
892 1 36.65925 17.65075 20.36625
893 1 36.65925 20.36625 1.35775
894 1 36.65925 20.36625 6.78875
895 1 36.65925 20.36625 12.21975
896 1 36.65925 20.36625 17.65075
897 1 38.017 0.0 0.0
898 1 38.017 0.0 5.431
899 1 38.017 0.0 10.862
900 1 38.017 0.0 16.293
901 1 38.017 2.7155 2.7155
902 1 38.017 2.7155 8.1465
903 1 38.017 2.7155 13.5775
904 1 38.017 2.7155 19.0085
905 1 38.017 5.431 0.0
906 1 38.017 5.431 5.431
907 1 38.017 5.431 10.862
908 1 38.017 5.431 16.293
909 1 38.017 8.1465 2.7155
910 1 38.017 8.1465 8.1465
911 1 38.017 8.1465 13.5775
912 1 38.017 8.1465 19.0085
913 1 38.017 10.862 0.0
914 1 38.017 10.862 5.431
915 1 38.017 10.862 10.862
916 1 38.017 10.862 16.293
917 1 38.017 13.5775 2.7155
918 1 38.017 13.5775 8.1465
919 1 38.017 13.5775 13.5775
920 1 38.017 13.5775 19.0085
921 1 38.017 16.293 0.0
922 1 38.017 16.293 5.431
923 1 38.017 16.293 10.862
924 1 38.017 16.293 16.293
925 1 38.017 19.0085 2.7155
926 1 38.017 19.0085 8.1465
927 1 38.017 19.0085 13.5775
928 1 38.017 19.0085 19.0085
929 1 39.37475 1.35775 1.35775
930 1 39.37475 1.35775 6.78875
931 1 39.37475 1.35775 12.21975
932 1 39.37475 1.35775 17.65075
933 1 39.37475 4.07325 4.07325
934 1 39.37475 4.07325 9.50425
935 1 39.37475 4.07325 14.93525
936 1 39.37475 4.07325 20.36625
937 1 39.37475 6.78875 1.35775
938 1 39.37475 6.78875 6.78875
939 1 39.37475 6.78875 12.21975
940 1 39.37475 6.78875 17.65075
941 1 39.37475 9.50425 4.07325
942 1 39.37475 9.50425 9.50425
943 1 39.37475 9.50425 14.93525
944 1 39.37475 9.50425 20.36625
945 1 39.37475 12.21975 1.35775
946 1 39.37475 12.21975 6.78875
947 1 39.37475 12.21975 12.21975
948 1 39.37475 12.21975 17.65075
949 1 39.37475 14.93525 4.07325
950 1 39.37475 14.93525 9.50425
951 1 39.37475 14.93525 14.93525
952 1 39.37475 14.93525 20.36625
953 1 39.37475 17.65075 1.35775
954 1 39.37475 17.65075 6.78875
955 1 39.37475 17.65075 12.21975
956 1 39.37475 17.65075 17.65075
957 1 39.37475 20.36625 4.07325
958 1 39.37475 20.36625 9.50425
959 1 39.37475 20.36625 14.93525
960 1 39.37475 20.36625 20.36625
961 1 40.7325 0.0 2.7155
962 1 40.7325 0.0 8.1465
963 1 40.7325 0.0 13.5775
964 1 40.7325 0.0 19.0085
965 1 40.7325 2.7155 0.0
966 1 40.7325 2.7155 5.431
967 1 40.7325 2.7155 10.862
968 1 40.7325 2.7155 16.293
969 1 40.7325 5.431 2.7155
970 1 40.7325 5.431 8.1465
971 1 40.7325 5.431 13.5775
972 1 40.7325 5.431 19.0085
973 1 40.7325 8.1465 0.0
974 1 40.7325 8.1465 5.431
975 1 40.7325 8.1465 10.862
976 1 40.7325 8.1465 16.293
977 1 40.7325 10.862 2.7155
978 1 40.7325 10.862 8.1465
979 1 40.7325 10.862 13.5775
980 1 40.7325 10.862 19.0085
981 1 40.7325 13.5775 0.0
982 1 40.7325 13.5775 5.431
983 1 40.7325 13.5775 10.862
984 1 40.7325 13.5775 16.293
985 1 40.7325 16.293 2.7155
986 1 40.7325 16.293 8.1465
987 1 40.7325 16.293 13.5775
988 1 40.7325 16.293 19.0085
989 1 40.7325 19.0085 0.0
990 1 40.7325 19.0085 5.431
991 1 40.7325 19.0085 10.862
992 1 40.7325 19.0085 16.293
993 1 42.09025 1.35775 4.07325
994 1 42.09025 1.35775 9.50425
995 1 42.09025 1.35775 14.93525
996 1 42.09025 1.35775 20.36625
997 1 42.09025 4.07325 1.35775
998 1 42.09025 4.07325 6.78875
999 1 42.09025 4.07325 12.21975
1000 1 42.09025 4.07325 17.65075
1001 1 42.09025 6.78875 4.07325
1002 1 42.09025 6.78875 9.50425
1003 1 42.09025 6.78875 14.93525
1004 1 42.09025 6.78875 20.36625
1005 1 42.09025 9.50425 1.35775
1006 1 42.09025 9.50425 6.78875
1007 1 42.09025 9.50425 12.21975
1008 1 42.09025 9.50425 17.65075
1009 1 42.09025 12.21975 4.07325
1010 1 42.09025 12.21975 9.50425
1011 1 42.09025 12.21975 14.93525
1012 1 42.09025 12.21975 20.36625
1013 1 42.09025 14.93525 1.35775
1014 1 42.09025 14.93525 6.78875