LAMMPS DATA FILE

5760 atoms

2 atom types

-0.678875 107.941125 xlo xhi
-0.678875 31.907125 ylo yhi
-0.678875 31.907125 zlo zhi

Masses

1 28.0855
2 72.64

Atoms

1 1 0.0 0.0 0.0
2 1 0.0 0.0 5.431
3 1 0.0 0.0 10.862
4 1 0.0 0.0 16.293
5 1 0.0 0.0 21.724
6 1 0.0 0.0 27.155
7 1 0.0 2.7155 2.7155
8 1 0.0 2.7155 8.1465
9 1 0.0 2.7155 13.5775
10 1 0.0 2.7155 19.0085
11 1 0.0 2.7155 24.4395
12 1 0.0 2.7155 29.8705
13 1 0.0 5.431 0.0
14 1 0.0 5.431 5.431
15 1 0.0 5.431 10.862
16 1 0.0 5.431 16.293
17 1 0.0 5.431 21.724
18 1 0.0 5.431 27.155
19 1 0.0 8.1465 2.7155
20 1 0.0 8.1465 8.1465
21 1 0.0 8.1465 13.5775
22 1 0.0 8.1465 19.0085
23 1 0.0 8.1465 24.4395
24 1 0.0 8.1465 29.8705
25 1 0.0 10.862 0.0
26 1 0.0 10.862 5.431
27 1 0.0 10.862 10.862
28 1 0.0 10.862 16.293
29 1 0.0 10.862 21.724
30 1 0.0 10.862 27.155
31 1 0.0 13.5775 2.7155
32 1 0.0 13.5775 8.1465
33 1 0.0 13.5775 13.5775
34 1 0.0 13.5775 19.0085
35 1 0.0 13.5775 24.4395
36 1 0.0 13.5775 29.8705
37 1 0.0 16.293 0.0
38 1 0.0 16.293 5.431
39 1 0.0 16.293 10.862
40 1 0.0 16.293 16.293
41 1 0.0 16.293 21.724
42 1 0.0 16.293 27.155
43 1 0.0 19.0085 2.7155
44 1 0.0 19.0085 8.1465
45 1 0.0 19.0085 13.5775
46 1 0.0 19.0085 19.0085
47 1 0.0 19.0085 24.4395
48 1 0.0 19.0085 29.8705
49 1 0.0 21.724 0.0
50 1 0.0 21.724 5.431
51 1 0.0 21.724 10.862
52 1 0.0 21.724 16.293
53 1 0.0 21.724 21.724
54 1 0.0 21.724 27.155
55 1 0.0 24.4395 2.7155
56 1 0.0 24.4395 8.1465
57 1 0.0 24.4395 13.5775
58 1 0.0 24.4395 19.0085
59 1 0.0 24.4395 24.4395
60 1 0.0 24.4395 29.8705
61 1 0.0 27.155 0.0
62 1 0.0 27.155 5.431
63 1 0.0 27.155 10.862
64 1 0.0 27.155 16.293
65 1 0.0 27.155 21.724
66 1 0.0 27.155 27.155
67 1 0.0 29.8705 2.7155
68 1 0.0 29.8705 8.1465
69 1 0.0 29.8705 13.5775
70 1 0.0 29.8705 19.0085
71 1 0.0 29.8705 24.4395
72 1 0.0 29.8705 29.8705
73 1 1.35775 1.35775 1.35775
74 1 1.35775 1.35775 6.78875
75 1 1.35775 1.35775 12.21975
76 1 1.35775 1.35775 17.65075
77 1 1.35775 1.35775 23.08175
78 1 1.35775 1.35775 28.51275
79 1 1.35775 4.07325 4.07325
80 1 1.35775 4.07325 9.50425
81 1 1.35775 4.07325 14.93525
82 1 1.35775 4.07325 20.36625
83 1 1.35775 4.07325 25.797250000000002
84 1 1.35775 4.07325 31.22825
85 1 1.35775 6.78875 1.35775
86 1 1.35775 6.78875 6.78875
87 1 1.35775 6.78875 12.21975
88 1 1.35775 6.78875 17.65075
89 1 1.35775 6.78875 23.08175
90 1 1.35775 6.78875 28.51275
91 1 1.35775 9.50425 4.07325
92 1 1.35775 9.50425 9.50425
93 1 1.35775 9.50425 14.93525
94 1 1.35775 9.50425 20.36625
95 1 1.35775 9.50425 25.797250000000002
96 1 1.35775 9.50425 31.22825
97 1 1.35775 12.21975 1.35775
98 1 1.35775 12.21975 6.78875
99 1 1.35775 12.21975 12.21975
100 1 1.35775 12.21975 17.65075
101 1 1.35775 12.21975 23.08175
102 1 1.35775 12.21975 28.51275
103 1 1.35775 14.93525 4.07325
104 1 1.35775 14.93525 9.50425
105 1 1.35775 14.93525 14.93525
106 1 1.35775 14.93525 20.36625
107 1 1.35775 14.93525 25.797250000000002
108 1 1.35775 14.93525 31.22825
109 1 1.35775 17.65075 1.35775
110 1 1.35775 17.65075 6.78875
111 1 1.35775 17.65075 12.21975
112 1 1.35775 17.65075 17.65075
113 1 1.35775 17.65075 23.08175
114 1 1.35775 17.65075 28.51275
115 1 1.35775 20.36625 4.07325
116 1 1.35775 20.36625 9.50425
117 1 1.35775 20.36625 14.93525
118 1 1.35775 20.36625 20.36625
119 1 1.35775 20.36625 25.797250000000002
120 1 1.35775 20.36625 31.22825
121 1 1.35775 23.08175 1.35775
122 1 1.35775 23.08175 6.78875
123 1 1.35775 23.08175 12.21975
124 1 1.35775 23.08175 17.65075
125 1 1.35775 23.08175 23.08175
126 1 1.35775 23.08175 28.51275
127 1 1.35775 25.797250000000002 4.07325
128 1 1.35775 25.797250000000002 9.50425
129 1 1.35775 25.797250000000002 14.93525
130 1 1.35775 25.797250000000002 20.36625
131 1 1.35775 25.797250000000002 25.797250000000002
132 1 1.35775 25.797250000000002 31.22825
133 1 1.35775 28.51275 1.35775
134 1 1.35775 28.51275 6.78875
135 1 1.35775 28.51275 12.21975
136 1 1.35775 28.51275 17.65075
137 1 1.35775 28.51275 23.08175
138 1 1.35775 28.51275 28.51275
139 1 1.35775 31.22825 4.07325
140 1 1.35775 31.22825 9.50425
141 1 1.35775 31.22825 14.93525
142 1 1.35775 31.22825 20.36625
143 1 1.35775 31.22825 25.797250000000002
144 1 1.35775 31.22825 31.22825
145 1 2.7155 0.0 2.7155
146 1 2.7155 0.0 8.1465
147 1 2.7155 0.0 13.5775
148 1 2.7155 0.0 19.0085
149 1 2.7155 0.0 24.4395
150 1 2.7155 0.0 29.8705
151 1 2.7155 2.7155 0.0
152 1 2.7155 2.7155 5.431
153 1 2.7155 2.7155 10.862
154 1 2.7155 2.7155 16.293
155 1 2.7155 2.7155 21.724
156 1 2.7155 2.7155 27.155
157 1 2.7155 5.431 2.7155
158 1 2.7155 5.431 8.1465
159 1 2.7155 5.431 13.5775
160 1 2.7155 5.431 19.0085
161 1 2.7155 5.431 24.4395
162 1 2.7155 5.431 29.8705
163 1 2.7155 8.1465 0.0
164 1 2.7155 8.1465 5.431
165 1 2.7155 8.1465 10.862
166 1 2.7155 8.1465 16.293
167 1 2.7155 8.1465 21.724
168 1 2.7155 8.1465 27.155
169 1 2.7155 10.862 2.7155
170 1 2.7155 10.862 8.1465
171 1 2.7155 10.862 13.5775
172 1 2.7155 10.862 19.0085
173 1 2.7155 10.862 24.4395
174 1 2.7155 10.862 29.8705
175 1 2.7155 13.5775 0.0
176 1 2.7155 13.5775 5.431
177 1 2.7155 13.5775 10.862
178 1 2.7155 13.5775 16.293
179 1 2.7155 13.5775 21.724
180 1 2.7155 13.5775 27.155
181 1 2.7155 16.293 2.7155
182 1 2.7155 16.293 8.1465
183 1 2.7155 16.293 13.5775
184 1 2.7155 16.293 19.0085
185 1 2.7155 16.293 24.4395
186 1 2.7155 16.293 29.8705
187 1 2.7155 19.0085 0.0
188 1 2.7155 19.0085 5.431
189 1 2.7155 19.0085 10.862
190 1 2.7155 19.0085 16.293
191 1 2.7155 19.0085 21.724
192 1 2.7155 19.0085 27.155
193 1 2.7155 21.724 2.7155
194 1 2.7155 21.724 8.1465
195 1 2.7155 21.724 13.5775
196 1 2.7155 21.724 19.0085
197 1 2.7155 21.724 24.4395
198 1 2.7155 21.724 29.8705
199 1 2.7155 24.4395 0.0
200 1 2.7155 24.4395 5.431
201 1 2.7155 24.4395 10.862
202 1 2.7155 24.4395 16.293
203 1 2.7155 24.4395 21.724
204 1 2.7155 24.4395 27.155
205 1 2.7155 27.155 2.7155
206 1 2.7155 27.155 8.1465
207 1 2.7155 27.155 13.5775
208 1 2.7155 27.155 19.0085
209 1 2.7155 27.155 24.4395
210 1 2.7155 27.155 29.8705
211 1 2.7155 29.8705 0.0
212 1 2.7155 29.8705 5.431
213 1 2.7155 29.8705 10.862
214 1 2.7155 29.8705 16.293
215 1 2.7155 29.8705 21.724
216 1 2.7155 29.8705 27.155
217 1 4.07325 1.35775 4.07325
218 1 4.07325 1.35775 9.50425
219 1 4.07325 1.35775 14.93525
220 1 4.07325 1.35775 20.36625
221 1 4.07325 1.35775 25.797250000000002
222 1 4.07325 1.35775 31.22825
223 1 4.07325 4.07325 1.35775
224 1 4.07325 4.07325 6.78875
225 1 4.07325 4.07325 12.21975
226 1 4.07325 4.07325 17.65075
227 1 4.07325 4.07325 23.08175
228 1 4.07325 4.07325 28.51275
229 1 4.07325 6.78875 4.07325
230 1 4.07325 6.78875 9.50425
231 1 4.07325 6.78875 14.93525
232 1 4.07325 6.78875 20.36625
233 1 4.07325 6.78875 25.797250000000002
234 1 4.07325 6.78875 31.22825
235 1 4.07325 9.50425 1.35775
236 1 4.07325 9.50425 6.78875
237 1 4.07325 9.50425 12.21975
238 1 4.07325 9.50425 17.65075
239 1 4.07325 9.50425 23.08175
240 1 4.07325 9.50425 28.51275
241 1 4.07325 12.21975 4.07325
242 1 4.07325 12.21975 9.50425
243 1 4.07325 12.21975 14.93525
244 1 4.07325 12.21975 20.36625
245 1 4.07325 12.21975 25.797250000000002
246 1 4.07325 12.21975 31.22825
247 1 4.07325 14.93525 1.35775
248 1 4.07325 14.93525 6.78875
249 1 4.07325 14.93525 12.21975
250 1 4.07325 14.93525 17.65075
251 1 4.07325 14.93525 23.08175
252 1 4.07325 14.93525 28.51275
253 1 4.07325 17.65075 4.07325
254 1 4.07325 17.65075 9.50425
255 1 4.07325 17.65075 14.93525
256 1 4.07325 17.65075 20.36625
257 1 4.07325 17.65075 25.797250000000002
258 1 4.07325 17.65075 31.22825
259 1 4.07325 20.36625 1.35775
260 1 4.07325 20.36625 6.78875
261 1 4.07325 20.36625 12.21975
262 1 4.07325 20.36625 17.65075
263 1 4.07325 20.36625 23.08175
264 1 4.07325 20.36625 28.51275
265 1 4.07325 23.08175 4.07325
266 1 4.07325 23.08175 9.50425
267 1 4.07325 23.08175 14.93525
268 1 4.07325 23.08175 20.36625
269 1 4.07325 23.08175 25.797250000000002
270 1 4.07325 23.08175 31.22825
271 1 4.07325 25.797250000000002 1.35775
272 1 4.07325 25.797250000000002 6.78875
273 1 4.07325 25.797250000000002 12.21975
274 1 4.07325 25.797250000000002 17.65075
275 1 4.07325 25.797250000000002 23.08175
276 1 4.07325 25.797250000000002 28.51275
277 1 4.07325 28.51275 4.07325
278 1 4.07325 28.51275 9.50425
279 1 4.07325 28.51275 14.93525
280 1 4.07325 28.51275 20.36625
281 1 4.07325 28.51275 25.797250000000002
282 1 4.07325 28.51275 31.22825
283 1 4.07325 31.22825 1.35775
284 1 4.07325 31.22825 6.78875
285 1 4.07325 31.22825 12.21975
286 1 4.07325 31.22825 17.65075
287 1 4.07325 31.22825 23.08175
288 1 4.07325 31.22825 28.51275
289 1 5.431 0.0 0.0
290 1 5.431 0.0 5.431
291 1 5.431 0.0 10.862
292 1 5.431 0.0 16.293
293 1 5.431 0.0 21.724
294 1 5.431 0.0 27.155
295 1 5.431 2.7155 2.7155
296 1 5.431 2.7155 8.1465
297 1 5.431 2.7155 13.5775
298 1 5.431 2.7155 19.0085
299 1 5.431 2.7155 24.4395
300 1 5.431 2.7155 29.8705
301 1 5.431 5.431 0.0
302 1 5.431 5.431 5.431
303 1 5.431 5.431 10.862
304 1 5.431 5.431 16.293
305 1 5.431 5.431 21.724
306 1 5.431 5.431 27.155
307 1 5.431 8.1465 2.7155
308 1 5.431 8.1465 8.1465
309 1 5.431 8.1465 13.5775
310 1 5.431 8.1465 19.0085
311 1 5.431 8.1465 24.4395
312 1 5.431 8.1465 29.8705
313 1 5.431 10.862 0.0
314 1 5.431 10.862 5.431
315 1 5.431 10.862 10.862
316 1 5.431 10.862 16.293
317 1 5.431 10.862 21.724
318 1 5.431 10.862 27.155
319 1 5.431 13.5775 2.7155
320 1 5.431 13.5775 8.1465
321 1 5.431 13.5775 13.5775
322 1 5.431 13.5775 19.0085
323 1 5.431 13.5775 24.4395
324 1 5.431 13.5775 29.8705
325 1 5.431 16.293 0.0
326 1 5.431 16.293 5.431
327 1 5.431 16.293 10.862
328 1 5.431 16.293 16.293
329 1 5.431 16.293 21.724
330 1 5.431 16.293 27.155
331 1 5.431 19.0085 2.7155
332 1 5.431 19.0085 8.1465
333 1 5.431 19.0085 13.5775
334 1 5.431 19.0085 19.0085
335 1 5.431 19.0085 24.4395
336 1 5.431 19.0085 29.8705
337 1 5.431 21.724 0.0
338 1 5.431 21.724 5.431
339 1 5.431 21.724 10.862
340 1 5.431 21.724 16.293
341 1 5.431 21.724 21.724
342 1 5.431 21.724 27.155
343 1 5.431 24.4395 2.7155
344 1 5.431 24.4395 8.1465
345 1 5.431 24.4395 13.5775
346 1 5.431 24.4395 19.0085
347 1 5.431 24.4395 24.4395
348 1 5.431 24.4395 29.8705
349 1 5.431 27.155 0.0
350 1 5.431 27.155 5.431
351 1 5.431 27.155 10.862
352 1 5.431 27.155 16.293
353 1 5.431 27.155 21.724
354 1 5.431 27.155 27.155
355 1 5.431 29.8705 2.7155
356 1 5.431 29.8705 8.1465
357 1 5.431 29.8705 13.5775
358 1 5.431 29.8705 19.0085
359 1 5.431 29.8705 24.4395
360 1 5.431 29.8705 29.8705
361 1 6.78875 1.35775 1.35775
362 1 6.78875 1.35775 6.78875
363 1 6.78875 1.35775 12.21975
364 1 6.78875 1.35775 17.65075
365 1 6.78875 1.35775 23.08175
366 1 6.78875 1.35775 28.51275
367 1 6.78875 4.07325 4.07325
368 1 6.78875 4.07325 9.50425
369 1 6.78875 4.07325 14.93525
370 1 6.78875 4.07325 20.36625
371 1 6.78875 4.07325 25.797250000000002
372 1 6.78875 4.07325 31.22825
373 1 6.78875 6.78875 1.35775
374 1 6.78875 6.78875 6.78875
375 1 6.78875 6.78875 12.21975
376 1 6.78875 6.78875 17.65075
377 1 6.78875 6.78875 23.08175
378 1 6.78875 6.78875 28.51275
379 1 6.78875 9.50425 4.07325
380 1 6.78875 9.50425 9.50425
381 1 6.78875 9.50425 14.93525
382 1 6.78875 9.50425 20.36625
383 1 6.78875 9.50425 25.797250000000002
384 1 6.78875 9.50425 31.22825
385 1 6.78875 12.21975 1.35775
386 1 6.78875 12.21975 6.78875
387 1 6.78875 12.21975 12.21975
388 1 6.78875 12.21975 17.65075
389 1 6.78875 12.21975 23.08175
390 1 6.78875 12.21975 28.51275
391 1 6.78875 14.93525 4.07325
392 1 6.78875 14.93525 9.50425
393 1 6.78875 14.93525 14.93525
394 1 6.78875 14.93525 20.36625
395 1 6.78875 14.93525 25.797250000000002
396 1 6.78875 14.93525 31.22825
397 1 6.78875 17.65075 1.35775
398 1 6.78875 17.65075 6.78875
399 1 6.78875 17.65075 12.21975
400 1 6.78875 17.65075 17.65075
401 1 6.78875 17.65075 23.08175
402 1 6.78875 17.65075 28.51275
403 1 6.78875 20.36625 4.07325
404 1 6.78875 20.36625 9.50425
405 1 6.78875 20.36625 14.93525
406 1 6.78875 20.36625 20.36625
407 1 6.78875 20.36625 25.797250000000002
408 1 6.78875 20.36625 31.22825
409 1 6.78875 23.08175 1.35775
410 1 6.78875 23.08175 6.78875
411 1 6.78875 23.08175 12.21975
412 1 6.78875 23.08175 17.65075
413 1 6.78875 23.08175 23.08175
414 1 6.78875 23.08175 28.51275
415 1 6.78875 25.797250000000002 4.07325
416 1 6.78875 25.797250000000002 9.50425
417 1 6.78875 25.797250000000002 14.93525
418 1 6.78875 25.797250000000002 20.36625
419 1 6.78875 25.797250000000002 25.797250000000002
420 1 6.78875 25.797250000000002 31.22825
421 1 6.78875 28.51275 1.35775
422 1 6.78875 28.51275 6.78875
423 1 6.78875 28.51275 12.21975
424 1 6.78875 28.51275 17.65075
425 1 6.78875 28.51275 23.08175
426 1 6.78875 28.51275 28.51275
427 1 6.78875 31.22825 4.07325
428 1 6.78875 31.22825 9.50425
429 1 6.78875 31.22825 14.93525
430 1 6.78875 31.22825 20.36625
431 1 6.78875 31.22825 25.797250000000002
432 1 6.78875 31.22825 31.22825
433 1 8.1465 0.0 2.7155
434 1 8.1465 0.0 8.1465
435 1 8.1465 0.0 13.5775
436 1 8.1465 0.0 19.0085
437 1 8.1465 0.0 24.4395
438 1 8.1465 0.0 29.8705
439 1 8.1465 2.7155 0.0
440 1 8.1465 2.7155 5.431
441 1 8.1465 2.7155 10.862
442 1 8.1465 2.7155 16.293
443 1 8.1465 2.7155 21.724
444 1 8.1465 2.7155 27.155
445 1 8.1465 5.431 2.7155
446 1 8.1465 5.431 8.1465
447 1 8.1465 5.431 13.5775
448 1 8.1465 5.431 19.0085
449 1 8.1465 5.431 24.4395
450 1 8.1465 5.431 29.8705
451 1 8.1465 8.1465 0.0
452 1 8.1465 8.1465 5.431
453 1 8.1465 8.1465 10.862
454 1 8.1465 8.1465 16.293
455 1 8.1465 8.1465 21.724
456 1 8.1465 8.1465 27.155
457 1 8.1465 10.862 2.7155
458 1 8.1465 10.862 8.1465
459 1 8.1465 10.862 13.5775
460 1 8.1465 10.862 19.0085
461 1 8.1465 10.862 24.4395
462 1 8.1465 10.862 29.8705
463 1 8.1465 13.5775 0.0
464 1 8.1465 13.5775 5.431
465 1 8.1465 13.5775 10.862
466 1 8.1465 13.5775 16.293
467 1 8.1465 13.5775 21.724
468 1 8.1465 13.5775 27.155
469 1 8.1465 16.293 2.7155
470 1 8.1465 16.293 8.1465
471 1 8.1465 16.293 13.5775
472 1 8.1465 16.293 19.0085
473 1 8.1465 16.293 24.4395
474 1 8.1465 16.293 29.8705
475 1 8.1465 19.0085 0.0
476 1 8.1465 19.0085 5.431
477 1 8.1465 19.0085 10.862
478 1 8.1465 19.0085 16.293
479 1 8.1465 19.0085 21.724
480 1 8.1465 19.0085 27.155
481 1 8.1465 21.724 2.7155
482 1 8.1465 21.724 8.1465
483 1 8.1465 21.724 13.5775
484 1 8.1465 21.724 19.0085
485 1 8.1465 21.724 24.4395
486 1 8.1465 21.724 29.8705
487 1 8.1465 24.4395 0.0
488 1 8.1465 24.4395 5.431
489 1 8.1465 24.4395 10.862
490 1 8.1465 24.4395 16.293
491 1 8.1465 24.4395 21.724
492 1 8.1465 24.4395 27.155
493 1 8.1465 27.155 2.7155
494 1 8.1465 27.155 8.1465
495 1 8.1465 27.155 13.5775
496 1 8.1465 27.155 19.0085
497 1 8.1465 27.155 24.4395
498 1 8.1465 27.155 29.8705
499 1 8.1465 29.8705 0.0
500 1 8.1465 29.8705 5.431
501 1 8.1465 29.8705 10.862
502 1 8.1465 29.8705 16.293
503 1 8.1465 29.8705 21.724
504 1 8.1465 29.8705 27.155
505 1 9.50425 1.35775 4.07325
506 1 9.50425 1.35775 9.50425
507 1 9.50425 1.35775 14.93525
508 1 9.50425 1.35775 20.36625
509 1 9.50425 1.35775 25.797250000000002
510 1 9.50425 1.35775 31.22825
511 1 9.50425 4.07325 1.35775
512 1 9.50425 4.07325 6.78875
513 1 9.50425 4.07325 12.21975
514 1 9.50425 4.07325 17.65075
515 1 9.50425 4.07325 23.08175
516 1 9.50425 4.07325 28.51275
517 1 9.50425 6.78875 4.07325
518 1 9.50425 6.78875 9.50425
519 1 9.50425 6.78875 14.93525
520 1 9.50425 6.78875 20.36625
521 1 9.50425 6.78875 25.797250000000002
522 1 9.50425 6.78875 31.22825
523 1 9.50425 9.50425 1.35775
524 1 9.50425 9.50425 6.78875
525 1 9.50425 9.50425 12.21975
526 1 9.50425 9.50425 17.65075
527 1 9.50425 9.50425 23.08175
528 1 9.50425 9.50425 28.51275
529 1 9.50425 12.21975 4.07325
530 1 9.50425 12.21975 9.50425
531 1 9.50425 12.21975 14.93525
532 1 9.50425 12.21975 20.36625
533 1 9.50425 12.21975 25.797250000000002
534 1 9.50425 12.21975 31.22825
535 1 9.50425 14.93525 1.35775
536 1 9.50425 14.93525 6.78875
537 1 9.50425 14.93525 12.21975
538 1 9.50425 14.93525 17.65075
539 1 9.50425 14.93525 23.08175
540 1 9.50425 14.93525 28.51275
541 1 9.50425 17.65075 4.07325
542 1 9.50425 17.65075 9.50425
543 1 9.50425 17.65075 14.93525
544 1 9.50425 17.65075 20.36625
545 1 9.50425 17.65075 25.797250000000002
546 1 9.50425 17.65075 31.22825
547 1 9.50425 20.36625 1.35775
548 1 9.50425 20.36625 6.78875
549 1 9.50425 20.36625 12.21975
550 1 9.50425 20.36625 17.65075
551 1 9.50425 20.36625 23.08175
552 1 9.50425 20.36625 28.51275
553 1 9.50425 23.08175 4.07325
554 1 9.50425 23.08175 9.50425
555 1 9.50425 23.08175 14.93525
556 1 9.50425 23.08175 20.36625
557 1 9.50425 23.08175 25.797250000000002
558 1 9.50425 23.08175 31.22825
559 1 9.50425 25.797250000000002 1.35775
560 1 9.50425 25.797250000000002 6.78875
561 1 9.50425 25.797250000000002 12.21975
562 1 9.50425 25.797250000000002 17.65075
563 1 9.50425 25.797250000000002 23.08175
564 1 9.50425 25.797250000000002 28.51275
565 1 9.50425 28.51275 4.07325
566 1 9.50425 28.51275 9.50425
567 1 9.50425 28.51275 14.93525
568 1 9.50425 28.51275 20.36625
569 1 9.50425 28.51275 25.797250000000002
570 1 9.50425 28.51275 31.22825
571 1 9.50425 31.22825 1.35775
572 1 9.50425 31.22825 6.78875
573 1 9.50425 31.22825 12.21975
574 1 9.50425 31.22825 17.65075
575 1 9.50425 31.22825 23.08175
576 1 9.50425 31.22825 28.51275
577 1 10.862 0.0 0.0
578 1 10.862 0.0 5.431
579 1 10.862 0.0 10.862
580 1 10.862 0.0 16.293
581 1 10.862 0.0 21.724
582 1 10.862 0.0 27.155
583 1 10.862 2.7155 2.7155
584 1 10.862 2.7155 8.1465
585 1 10.862 2.7155 13.5775
586 1 10.862 2.7155 19.0085
587 1 10.862 2.7155 24.4395
588 1 10.862 2.7155 29.8705
589 1 10.862 5.431 0.0
590 1 10.862 5.431 5.431
591 1 10.862 5.431 10.862
592 1 10.862 5.431 16.293
593 1 10.862 5.431 21.724
594 1 10.862 5.431 27.155
595 1 10.862 8.1465 2.7155
596 1 10.862 8.1465 8.1465
597 1 10.862 8.1465 13.5775
598 1 10.862 8.1465 19.0085
599 1 10.862 8.1465 24.4395
600 1 10.862 8.1465 29.8705
601 1 10.862 10.862 0.0
602 1 10.862 10.862 5.431
603 1 10.862 10.862 10.862
604 1 10.862 10.862 16.293
605 1 10.862 10.862 21.724
606 1 10.862 10.862 27.155
607 1 10.862 13.5775 2.7155
608 1 10.862 13.5775 8.1465
609 1 10.862 13.5775 13.5775
610 1 10.862 13.5775 19.0085
611 1 10.862 13.5775 24.4395
612 1 10.862 13.5775 29.8705
613 1 10.862 16.293 0.0
614 1 10.862 16.293 5.431
615 1 10.862 16.293 10.862
616 1 10.862 16.293 16.293
617 1 10.862 16.293 21.724
618 1 10.862 16.293 27.155
619 1 10.862 19.0085 2.7155
620 1 10.862 19.0085 8.1465
621 1 10.862 19.0085 13.5775
622 1 10.862 19.0085 19.0085
623 1 10.862 19.0085 24.4395
624 1 10.862 19.0085 29.8705
625 1 10.862 21.724 0.0
626 1 10.862 21.724 5.431
627 1 10.862 21.724 10.862
628 1 10.862 21.724 16.293
629 1 10.862 21.724 21.724
630 1 10.862 21.724 27.155
631 1 10.862 24.4395 2.7155
632 1 10.862 24.4395 8.1465
633 1 10.862 24.4395 13.5775
634 1 10.862 24.4395 19.0085
635 1 10.862 24.4395 24.4395
636 1 10.862 24.4395 29.8705
637 1 10.862 27.155 0.0
638 1 10.862 27.155 5.431
639 1 10.862 27.155 10.862
640 1 10.862 27.155 16.293
641 1 10.862 27.155 21.724
642 1 10.862 27.155 27.155
643 1 10.862 29.8705 2.7155
644 1 10.862 29.8705 8.1465
645 1 10.862 29.8705 13.5775
646 1 10.862 29.8705 19.0085
647 1 10.862 29.8705 24.4395
648 1 10.862 29.8705 29.8705
649 1 12.21975 1.35775 1.35775
650 1 12.21975 1.35775 6.78875
651 1 12.21975 1.35775 12.21975
652 1 12.21975 1.35775 17.65075
653 1 12.21975 1.35775 23.08175
654 1 12.21975 1.35775 28.51275
655 1 12.21975 4.07325 4.07325
656 1 12.21975 4.07325 9.50425
657 1 12.21975 4.07325 14.93525
658 1 12.21975 4.07325 20.36625
659 1 12.21975 4.07325 25.797250000000002
660 1 12.21975 4.07325 31.22825
661 1 12.21975 6.78875 1.35775
662 1 12.21975 6.78875 6.78875
663 1 12.21975 6.78875 12.21975
664 1 12.21975 6.78875 17.65075
665 1 12.21975 6.78875 23.08175
666 1 12.21975 6.78875 28.51275
667 1 12.21975 9.50425 4.07325
668 1 12.21975 9.50425 9.50425
669 1 12.21975 9.50425 14.93525
670 1 12.21975 9.50425 20.36625
671 1 12.21975 9.50425 25.797250000000002
672 1 12.21975 9.50425 31.22825
673 1 12.21975 12.21975 1.35775
674 1 12.21975 12.21975 6.78875
675 1 12.21975 12.21975 12.21975
676 1 12.21975 12.21975 17.65075
677 1 12.21975 12.21975 23.08175
678 1 12.21975 12.21975 28.51275
679 1 12.21975 14.93525 4.07325
680 1 12.21975 14.93525 9.50425
681 1 12.21975 14.93525 14.93525
682 1 12.21975 14.93525 20.36625
683 1 12.21975 14.93525 25.797250000000002
684 1 12.21975 14.93525 31.22825
685 1 12.21975 17.65075 1.35775
686 1 12.21975 17.65075 6.78875
687 1 12.21975 17.65075 12.21975
688 1 12.21975 17.65075 17.65075
689 1 12.21975 17.65075 23.08175
690 1 12.21975 17.65075 28.51275
691 1 12.21975 20.36625 4.07325
692 1 12.21975 20.36625 9.50425
693 1 12.21975 20.36625 14.93525
694 1 12.21975 20.36625 20.36625
695 1 12.21975 20.36625 25.797250000000002
696 1 12.21975 20.36625 31.22825
697 1 12.21975 23.08175 1.35775
698 1 12.21975 23.08175 6.78875
699 1 12.21975 23.08175 12.21975
700 1 12.21975 23.08175 17.65075
701 1 12.21975 23.08175 23.08175
702 1 12.21975 23.08175 28.51275
703 1 12.21975 25.797250000000002 4.07325
704 1 12.21975 25.797250000000002 9.50425
705 1 12.21975 25.797250000000002 14.93525
706 1 12.21975 25.797250000000002 20.36625
707 1 12.21975 25.797250000000002 25.797250000000002
708 1 12.21975 25.797250000000002 31.22825
709 1 12.21975 28.51275 1.35775
710 1 12.21975 28.51275 6.78875
711 1 12.21975 28.51275 12.21975
712 1 12.21975 28.51275 17.65075
713 1 12.21975 28.51275 23.08175
714 1 12.21975 28.51275 28.51275
715 1 12.21975 31.22825 4.07325
716 1 12.21975 31.22825 9.50425
717 1 12.21975 31.22825 14.93525
718 1 12.21975 31.22825 20.36625
719 1 12.21975 31.22825 25.797250000000002
720 1 12.21975 31.22825 31.22825
721 1 13.5775 0.0 2.7155
722 1 13.5775 0.0 8.1465
723 1 13.5775 0.0 13.5775
724 1 13.5775 0.0 19.0085
725 1 13.5775 0.0 24.4395
726 1 13.5775 0.0 29.8705
727 1 13.5775 2.7155 0.0
728 1 13.5775 2.7155 5.431
729 1 13.5775 2.7155 10.862
730 1 13.5775 2.7155 16.293
731 1 13.5775 2.7155 21.724
732 1 13.5775 2.7155 27.155
733 1 13.5775 5.431 2.7155
734 1 13.5775 5.431 8.1465
735 1 13.5775 5.431 13.5775
736 1 13.5775 5.431 19.0085
737 1 13.5775 5.431 24.4395
738 1 13.5775 5.431 29.8705
739 1 13.5775 8.1465 0.0
740 1 13.5775 8.1465 5.431
741 1 13.5775 8.1465 10.862
742 1 13.5775 8.1465 16.293
743 1 13.5775 8.1465 21.724
744 1 13.5775 8.1465 27.155
745 1 13.5775 10.862 2.7155
746 1 13.5775 10.862 8.1465
747 1 13.5775 10.862 13.5775
748 1 13.5775 10.862 19.0085
749 1 13.5775 10.862 24.4395
750 1 13.5775 10.862 29.8705
751 1 13.5775 13.5775 0.0
752 1 13.5775 13.5775 5.431
753 1 13.5775 13.5775 10.862
754 1 13.5775 13.5775 16.293
755 1 13.5775 13.5775 21.724
756 1 13.5775 13.5775 27.155
757 1 13.5775 16.293 2.7155
758 1 13.5775 16.293 8.1465
759 1 13.5775 16.293 13.5775
760 1 13.5775 16.293 19.0085
761 1 13.5775 16.293 24.4395
762 1 13.5775 16.293 29.8705
763 1 13.5775 19.0085 0.0
764 1 13.5775 19.0085 5.431
765 1 13.5775 19.0085 10.862
766 1 13.5775 19.0085 16.293
767 1 13.5775 19.0085 21.724
768 1 13.5775 19.0085 27.155
769 1 13.5775 21.724 2.7155
770 1 13.5775 21.724 8.1465
771 1 13.5775 21.724 13.5775
772 1 13.5775 21.724 19.0085
773 1 13.5775 21.724 24.4395
774 1 13.5775 21.724 29.8705
775 1 13.5775 24.4395 0.0
776 1 13.5775 24.4395 5.431
777 1 13.5775 24.4395 10.862
778 1 13.5775 24.4395 16.293
779 1 13.5775 24.4395 21.724
780 1 13.5775 24.4395 27.155
781 1 13.5775 27.155 2.7155
782 1 13.5775 27.155 8.1465
783 1 13.5775 27.155 13.5775
784 1 13.5775 27.155 19.0085
785 1 13.5775 27.155 24.4395
786 1 13.5775 27.155 29.8705
787 1 13.5775 29.8705 0.0
788 1 13.5775 29.8705 5.431
789 1 13.5775 29.8705 10.862
790 1 13.5775 29.8705 16.293
791 1 13.5775 29.8705 21.724
792 1 13.5775 29.8705 27.155
793 1 14.93525 1.35775 4.07325
794 1 14.93525 1.35775 9.50425
795 1 14.93525 1.35775 14.93525
796 1 14.93525 1.35775 20.36625
797 1 14.93525 1.35775 25.797250000000002
798 1 14.93525 1.35775 31.22825
799 1 14.93525 4.07325 1.35775
800 1 14.93525 4.07325 6.78875
801 1 14.93525 4.07325 12.21975
802 1 14.93525 4.07325 17.65075
803 1 14.93525 4.07325 23.08175
804 1 14.93525 4.07325 28.51275
805 1 14.93525 6.78875 4.07325
806 1 14.93525 6.78875 9.50425
807 1 14.93525 6.78875 14.93525
808 1 14.93525 6.78875 20.36625
809 1 14.93525 6.78875 25.797250000000002
810 1 14.93525 6.78875 31.22825
811 1 14.93525 9.50425 1.35775
812 1 14.93525 9.50425 6.78875
813 1 14.93525 9.50425 12.21975
814 1 14.93525 9.50425 17.65075
815 1 14.93525 9.50425 23.08175
816 1 14.93525 9.50425 28.51275
817 1 14.93525 12.21975 4.07325
818 1 14.93525 12.21975 9.50425
819 1 14.93525 12.21975 14.93525
820 1 14.93525 12.21975 20.36625
821 1 14.93525 12.21975 25.797250000000002
822 1 14.93525 12.21975 31.22825
823 1 14.93525 14.93525 1.35775
824 1 14.93525 14.93525 6.78875
825 1 14.93525 14.93525 12.21975
826 1 14.93525 14.93525 17.65075
827 1 14.93525 14.93525 23.08175
828 1 14.93525 14.93525 28.51275
829 1 14.93525 17.65075 4.07325
830 1 14.93525 17.65075 9.50425
831 1 14.93525 17.65075 14.93525
832 1 14.93525 17.65075 20.36625
833 1 14.93525 17.65075 25.797250000000002
834 1 14.93525 17.65075 31.22825
835 1 14.93525 20.36625 1.35775
836 1 14.93525 20.36625 6.78875
837 1 14.93525 20.36625 12.21975
838 1 14.93525 20.36625 17.65075
839 1 14.93525 20.36625 23.08175
840 1 14.93525 20.36625 28.51275
841 1 14.93525 23.08175 4.07325
842 1 14.93525 23.08175 9.50425
843 1 14.93525 23.08175 14.93525
844 1 14.93525 23.08175 20.36625
845 1 14.93525 23.08175 25.797250000000002
846 1 14.93525 23.08175 31.22825
847 1 14.93525 25.797250000000002 1.35775
848 1 14.93525 25.797250000000002 6.78875
849 1 14.93525 25.797250000000002 12.21975
850 1 14.93525 25.797250000000002 17.65075
851 1 14.93525 25.797250000000002 23.08175
852 1 14.93525 25.797250000000002 28.51275
853 1 14.93525 28.51275 4.07325
854 1 14.93525 28.51275 9.50425
855 1 14.93525 28.51275 14.93525
856 1 14.93525 28.51275 20.36625
857 1 14.93525 28.51275 25.797250000000002
858 1 14.93525 28.51275 31.22825
859 1 14.93525 31.22825 1.35775
860 1 14.93525 31.22825 6.78875
861 1 14.93525 31.22825 12.21975
862 1 14.93525 31.22825 17.65075
863 1 14.93525 31.22825 23.08175
864 1 14.93525 31.22825 28.51275
865 1 16.293 0.0 0.0
866 1 16.293 0.0 5.431
867 1 16.293 0.0 10.862
868 1 16.293 0.0 16.293
869 1 16.293 0.0 21.724
870 1 16.293 0.0 27.155
871 1 16.293 2.7155 2.7155
872 1 16.293 2.7155 8.1465
873 1 16.293 2.7155 13.5775
874 1 16.293 2.7155 19.0085
875 1 16.293 2.7155 24.4395
876 1 16.293 2.7155 29.8705
877 1 16.293 5.431 0.0
878 1 16.293 5.431 5.431
879 1 16.293 5.431 10.862
880 1 16.293 5.431 16.293
881 1 16.293 5.431 21.724
882 1 16.293 5.431 27.155
883 1 16.293 8.1465 2.7155
884 1 16.293 8.1465 8.1465
885 1 16.293 8.1465 13.5775
886 1 16.293 8.1465 19.0085
887 1 16.293 8.1465 24.4395
888 1 16.293 8.1465 29.8705
889 1 16.293 10.862 0.0
890 1 16.293 10.862 5.431
891 1 16.293 10.862 10.862
892 1 16.293 10.862 16.293
893 1 16.293 10.862 21.724
894 1 16.293 10.862 27.155
895 1 16.293 13.5775 2.7155
896 1 16.293 13.5775 8.1465
897 1 16.293 13.5775 13.5775
898 1 16.293 13.5775 19.0085
899 1 16.293 13.5775 24.4395
900 1 16.293 13.5775 29.8705
901 1 16.293 16.293 0.0
902 1 16.293 16.293 5.431
903 1 16.293 16.293 10.862
904 1 16.293 16.293 16.293
905 1 16.293 16.293 21.724
906 1 16.293 16.293 27.155
907 1 16.293 19.0085 2.7155
908 1 16.293 19.0085 8.1465
909 1 16.293 19.0085 13.5775
910 1 16.293 19.0085 19.0085
911 1 16.293 19.0085 24.4395
912 1 16.293 19.0085 29.8705
913 1 16.293 21.724 0.0
914 1 16.293 21.724 5.431
915 1 16.293 21.724 10.862
916 1 16.293 21.724 16.293
917 1 16.293 21.724 21.724
918 1 16.293 21.724 27.155
919 1 16.293 24.4395 2.7155
920 1 16.293 24.4395 8.1465
921 1 16.293 24.4395 13.5775
922 1 16.293 24.4395 19.0085
923 1 16.293 24.4395 24.4395
924 1 16.293 24.4395 29.8705
925 1 16.293 27.155 0.0
926 1 16.293 27.155 5.431
927 1 16.293 27.155 10.862
928 1 16.293 27.155 16.293
929 1 16.293 27.155 21.724
930 1 16.293 27.155 27.155
931 1 16.293 29.8705 2.7155
932 1 16.293 29.8705 8.1465
933 1 16.293 29.8705 13.5775
934 1 16.293 29.8705 19.0085
935 1 16.293 29.8705 24.4395
936 1 16.293 29.8705 29.8705
937 1 17.65075 1.35775 1.35775
938 1 17.65075 1.35775 6.78875
939 1 17.65075 1.35775 12.21975
940 1 17.65075 1.35775 17.65075
941 1 17.65075 1.35775 23.08175
942 1 17.65075 1.35775 28.51275
943 1 17.65075 4.07325 4.07325
944 1 17.65075 4.07325 9.50425
945 1 17.65075 4.07325 14.93525
946 1 17.65075 4.07325 20.36625
947 1 17.65075 4.07325 25.797250000000002
948 1 17.65075 4.07325 31.22825
949 1 17.65075 6.78875 1.35775
950 1 17.65075 6.78875 6.78875
951 1 17.65075 6.78875 12.21975
952 1 17.65075 6.78875 17.65075
953 1 17.65075 6.78875 23.08175
954 1 17.65075 6.78875 28.51275
955 1 17.65075 9.50425 4.07325
956 1 17.65075 9.50425 9.50425
957 1 17.65075 9.50425 14.93525
958 1 17.65075 9.50425 20.36625
959 1 17.65075 9.50425 25.797250000000002
960 1 17.65075 9.50425 31.22825
961 1 17.65075 12.21975 1.35775
962 1 17.65075 12.21975 6.78875
963 1 17.65075 12.21975 12.21975
964 1 17.65075 12.21975 17.65075
965 1 17.65075 12.21975 23.08175
966 1 17.65075 12.21975 28.51275
967 1 17.65075 14.93525 4.07325
968 1 17.65075 14.93525 9.50425
969 1 17.65075 14.93525 14.93525
970 1 17.65075 14.93525 20.36625
971 1 17.65075 14.93525 25.797250000000002
972 1 17.65075 14.93525 31.22825
973 1 17.65075 17.65075 1.35775
974 1 17.65075 17.65075 6.78875
975 1 17.65075 17.65075 12.21975
976 1 17.65075 17.65075 17.65075
977 1 17.65075 17.65075 23.08175
978 1 17.65075 17.65075 28.51275
979 1 17.65075 20.36625 4.07325
980 1 17.65075 20.36625 9.50425
981 1 17.65075 20.36625 14.93525
982 1 17.65075 20.36625 20.36625
983 1 17.65075 20.36625 25.797250000000002
984 1 17.65075 20.36625 31.22825
985 1 17.65075 23.08175 1.35775
986 1 17.65075 23.08175 6.78875
987 1 17.65075 23.08175 12.21975
988 1 17.65075 23.08175 17.65075
989 1 17.65075 23.08175 23.08175
990 1 17.65075 23.08175 28.51275
991 1 17.65075 25.797250000000002 4.07325
992 1 17.65075 25.797250000000002 9.50425
993 1 17.65075 25.797250000000002 14.93525
994 1 17.65075 25.797250000000002 20.36625
995 1 17.65075 25.797250000000002 25.797250000000002
996 1 17.65075 25.797250000000002 31.22825
997 1 17.65075 28.51275 1.35775
998 1 17.65075 28.51275 6.78875
999 1 17.65075 28.51275 12.21975