LAMMPS data file via write_data, version 16 Mar 2018, timestep = 6416077

5760 atoms
2 atom types

-1.6268467034162981e+00 1.0888909670342190e+02 xlo xhi
-1.0884370768437694e+00 3.2316687076134464e+01 ylo yhi
-1.0940612555090929e+00 3.2322311255510314e+01 zlo zhi

Masses

1 28.0855
2 72.64

Atoms # atomic

1 1 1.5755844272436959e-01 -2.6240486097958993e-01 -4.1757026988579538e-01 0 0 0
73 1 1.4628620172243743e+00 1.0636806532052994e+00 1.0642326526312156e+00 0 0 0
289 1 5.3478151407633394e+00 -3.3116662408029729e-01 -4.1263456966534412e-01 0 0 0
361 1 6.7477669736610117e+00 1.0232632072290215e+00 1.0049580874346944e+00 0 0 0
577 1 1.0651529265766403e+01 -2.9046541444233609e-01 -3.5114498377472830e-01 0 0 0
649 1 1.1963716470056477e+01 1.0975195533673068e+00 1.0681085453729933e+00 0 0 0
865 1 1.6003296286567018e+01 -3.4729783372490231e-01 -4.2749406811899837e-01 0 0 0
937 1 1.7305781716252170e+01 1.0480963445088671e+00 9.9289430861637273e-01 0 0 0
1153 1 2.1244535648971247e+01 -3.0847863096695283e-01 -3.5938652383766168e-01 0 0 0
1225 1 2.2684994107666103e+01 1.0841643509690537e+00 1.0108112627627095e+00 0 0 0
5695 2 -1.2006761284888949e+00 3.8426064958391897e+00 1.0056468578836264e+00 1 0 0
151 1 2.7788762508606228e+00 2.4629051804553037e+00 -3.0936387794320830e-01 0 0 0
223 1 4.0854048645948948e+00 3.9243093574460035e+00 1.0721806268919223e+00 0 0 0
439 1 7.9994052055332387e+00 2.4764783078400310e+00 -4.3246050688819693e-01 0 0 0
511 1 9.3064970257804323e+00 3.8754705649870003e+00 9.5972651362707806e-01 0 0 0
727 1 1.3406487426489159e+01 2.4203469472185142e+00 -3.9387125672203688e-01 0 0 0
799 1 1.4683556777173646e+01 3.7045602769192358e+00 1.0227602709877748e+00 0 0 0
1015 1 1.8648466259302069e+01 2.5603796451179290e+00 -3.1807254525352135e-01 0 0 0
1087 1 1.9990826808184611e+01 3.8920848102160921e+00 1.0431697015059813e+00 0 0 0
1303 1 2.3980132535946233e+01 2.4853746701154722e+00 -4.0729298077573484e-01 0 0 0
1375 1 2.5316021858279964e+01 3.8255796224657956e+00 1.0007603479832807e+00 0 0 0
13 1 1.8974357201682385e-01 5.2340215466018014e+00 -4.5532170608226696e-01 0 0 0
85 1 1.4470760822037549e+00 6.7738320350002974e+00 1.0170224440736189e+00 0 0 0
301 1 5.3296476325379629e+00 5.3365681176824449e+00 -4.2423673975533382e-01 0 0 0
373 1 6.6105408297969044e+00 6.7216855411178562e+00 1.0073575631270848e+00 0 0 0
589 1 1.0681097993303142e+01 5.1744858346039280e+00 -2.8117322008768075e-01 0 0 0
661 1 1.2008429071936645e+01 6.6019925563483657e+00 1.0978640260803947e+00 0 0 0
877 1 1.6003998111434047e+01 5.0348487241879525e+00 -4.0232019388493079e-01 0 0 0
949 1 1.7333102984658549e+01 6.4907779439824980e+00 9.3993741129139086e-01 0 0 0
1165 1 2.1263714700199667e+01 5.1617471470667313e+00 -3.1432715350177431e-01 0 0 0
1237 1 2.2599433655495982e+01 6.5297349370007076e+00 9.9990723882588251e-01 0 0 0
5707 2 -1.3225901265604052e+00 9.4889499083485340e+00 1.0746890006373278e+00 1 0 0
163 1 2.7415713895412286e+00 8.1275006839063622e+00 -4.3114071280467220e-01 0 0 0
235 1 4.0327818065852536e+00 9.4094033028352779e+00 1.0826158643297739e+00 0 0 0
451 1 8.0689560209924949e+00 7.9650096611881107e+00 -4.6096829576372284e-01 0 0 0
523 1 9.4821349041123781e+00 9.3661531782192320e+00 9.2375638070099797e-01 0 0 0
739 1 1.3279928382241948e+01 7.8909915874071777e+00 -4.4986951073065079e-01 0 0 0
811 1 1.4664290325466853e+01 9.1873768728356282e+00 9.0650069804993727e-01 0 0 0
1027 1 1.8731740283755808e+01 7.9978840120864056e+00 -3.7150196024808740e-01 0 0 0
1099 1 2.0028541019378345e+01 9.2858401985777466e+00 1.1796804927638223e+00 0 0 0
1315 1 2.4025681497061427e+01 7.9129001418191001e+00 -3.0980397568530088e-01 0 0 0
1387 1 2.5348039774690374e+01 9.4125871419016409e+00 1.1086957928669943e+00 0 0 0
25 1 7.1763232256969317e-02 1.0832190505735319e+01 -3.9014044953987226e-01 0 0 0
97 1 1.3185962963935238e+00 1.2149193498453952e+01 9.7256833196524373e-01 0 0 0
313 1 5.3145173307141587e+00 1.0748204270087916e+01 -4.4300312482726767e-01 0 0 0
385 1 6.6960112517141894e+00 1.2129267467024180e+01 1.0227483641615573e+00 0 0 0
601 1 1.0769706482235900e+01 1.0686061319352927e+01 -5.9137655825996216e-01 0 0 0
673 1 1.2005345702645590e+01 1.2105566333204107e+01 9.6531005739273645e-01 0 0 0
889 1 1.6013848787120825e+01 1.0708348651166348e+01 -4.0916046731218403e-01 0 0 0
961 1 1.7305512760378758e+01 1.2239106779252243e+01 1.0007762269691658e+00 0 0 0
1177 1 2.1318232057539163e+01 1.0688147897024193e+01 -3.0572208443503052e-01 0 0 0
1249 1 2.2673089539471487e+01 1.2173378235332873e+01 1.1086053979280710e+00 0 0 0
5719 2 -1.2785829240786211e+00 1.4956057594428980e+01 9.1986671486053506e-01 1 0 0
175 1 2.7466129597810816e+00 1.3560921778880061e+01 -3.6592744113811493e-01 0 0 0
247 1 4.1321430560680632e+00 1.4821219414923823e+01 9.6818106022771844e-01 0 0 0
463 1 8.0543783389188928e+00 1.3523907688243446e+01 -3.5274790868063166e-01 0 0 0
535 1 9.4993151052974056e+00 1.4921637405607713e+01 1.0371014033694628e+00 0 0 0
751 1 1.3400918611906530e+01 1.3616106499802436e+01 -3.5845156706679532e-01 0 0 0
823 1 1.4718828895403817e+01 1.5001377990239545e+01 1.0115382191708553e+00 0 0 0
1039 1 1.8670250379466026e+01 1.3465367937055724e+01 -3.5647739311632098e-01 0 0 0
1111 1 2.0038919367293904e+01 1.4947756980009133e+01 9.3100055608129384e-01 0 0 0
1327 1 2.3942729119865415e+01 1.3519347536339314e+01 -3.6299924779140713e-01 0 0 0
1399 1 2.5340403084482869e+01 1.4990498877779878e+01 9.5956022042745392e-01 0 0 0
5689 2 -1.1367315646572955e+00 1.0781024714270402e+00 3.8757318062112880e+00 1 0 0
145 1 2.8063245309339639e+00 -3.6791601703876053e-01 2.4717935296617721e+00 0 0 0
217 1 4.1298118004471380e+00 1.0517889433609116e+00 3.8572501950841733e+00 0 0 0
433 1 8.0744390285163909e+00 -4.1692661832674899e-01 2.5065829779106830e+00 0 0 0
505 1 9.3031583863769498e+00 9.6204058456255459e-01 3.9208908142575405e+00 0 0 0
721 1 1.3281890150011058e+01 -3.4879676592202313e-01 2.3992050415627544e+00 0 0 0
793 1 1.4670470855312971e+01 1.0114977576363466e+00 3.8182983932210210e+00 0 0 0
1009 1 1.8523753317406264e+01 -4.1970559018371600e-01 2.4600363966581713e+00 0 0 0
1081 1 1.9874296488518073e+01 9.5735334144593265e-01 3.6898669958170638e+00 0 0 0
1297 1 2.3964047536168085e+01 -4.2219303683722026e-01 2.4847073341749772e+00 0 0 0
1369 1 2.5246067878786871e+01 1.0138134619484600e+00 3.8640320459973219e+00 0 0 0
7 1 2.4236544505907184e-01 2.4277834452158844e+00 2.4396377421485407e+00 0 0 0
79 1 1.4001589669291818e+00 3.7694120760652265e+00 3.8504523493711087e+00 0 0 0
295 1 5.3581039953516267e+00 2.4536351840482808e+00 2.3575385550775620e+00 0 0 0
367 1 6.6587579335589089e+00 3.8664494233559461e+00 3.7878417228849055e+00 0 0 0
583 1 1.0509901342073263e+01 2.3680657423807672e+00 2.4205217794828777e+00 0 0 0
655 1 1.1959062035575664e+01 3.6697935269161368e+00 3.8165966575502135e+00 0 0 0
871 1 1.5966591687419333e+01 2.3988547759497481e+00 2.4281738110618805e+00 0 0 0
943 1 1.7390463886574384e+01 3.7649480117671379e+00 3.7263137504292572e+00 0 0 0
1159 1 2.1267956266782608e+01 2.3967275460039001e+00 2.4215017698152379e+00 0 0 0
1231 1 2.2681448037639154e+01 3.8109797189662422e+00 3.7717387682423293e+00 0 0 0
5701 2 -1.2947562614840493e+00 6.6109687563177646e+00 3.8851920080940188e+00 1 0 0
157 1 2.7257050733214827e+00 5.2792562279602526e+00 2.4603837836258897e+00 0 0 0
229 1 4.0677053513084163e+00 6.6607833047030196e+00 3.8889554967824598e+00 0 0 0
445 1 8.1043809025937463e+00 5.3396984959906320e+00 2.4074493493421265e+00 0 0 0
517 1 9.3801657087897823e+00 6.5444638308341538e+00 3.8163146735225126e+00 0 0 0
733 1 1.3282438992986661e+01 5.0026664177892224e+00 2.3694375188385193e+00 0 0 0
805 1 1.4643356940521455e+01 6.4379013282207733e+00 3.7803775984498014e+00 0 0 0
1021 1 1.8703373909418623e+01 5.2238710919097544e+00 2.4018227981209681e+00 0 0 0
1093 1 1.9882443697372484e+01 6.4941285662778681e+00 3.8716249525242921e+00 0 0 0
1309 1 2.4049943699817245e+01 5.1848303430841716e+00 2.3837954259436471e+00 0 0 0
1381 1 2.5278474729733514e+01 6.5425598402452527e+00 3.8765909248540069e+00 0 0 0
19 1 2.6572429010484129e-02 8.0710331474907058e+00 2.4140127825568953e+00 0 0 0
91 1 1.3879102019127396e+00 9.4169925942817958e+00 3.8901921970113205e+00 0 0 0
307 1 5.2856179844368034e+00 8.1112870975955236e+00 2.4343042530170220e+00 0 0 0
379 1 6.7534590182814229e+00 9.4461838730715435e+00 3.7159175250705059e+00 0 0 0
595 1 1.0833044338396977e+01 8.0638024859398048e+00 2.5448911089600328e+00 0 0 0
667 1 1.2130624793516258e+01 9.4260657953006302e+00 3.8929142021875318e+00 0 0 0
883 1 1.5911900359884823e+01 7.8316312467093816e+00 2.3233342345288577e+00 0 0 0
955 1 1.7293305622721224e+01 9.2571362249201670e+00 3.7412771933692559e+00 0 0 0
1171 1 2.1305529752760137e+01 7.8520034932291995e+00 2.6151244991379246e+00 0 0 0
1243 1 2.2691785732462826e+01 9.3620200894166388e+00 3.8528568055973942e+00 0 0 0
5713 2 -1.3917413906355134e+00 1.2166019398683369e+01 3.8579606885257278e+00 1 0 0
169 1 2.7194452221341376e+00 1.0778614873134796e+01 2.4607894394065259e+00 0 0 0
241 1 4.0464954872240142e+00 1.2160813728909622e+01 3.7864893760328502e+00 0 0 0
457 1 8.0634813249045312e+00 1.0800587421675070e+01 2.2517203926975533e+00 0 0 0
529 1 9.3794498663185646e+00 1.2153680279328999e+01 3.8658000883934522e+00 0 0 0
745 1 1.3468201512358164e+01 1.0748333076360451e+01 2.4084532127223750e+00 0 0 0
817 1 1.4793150012861375e+01 1.2184951745920763e+01 3.8400454221394771e+00 0 0 0
1033 1 1.8684527052167724e+01 1.0838523717291810e+01 2.5048703768618146e+00 0 0 0
1105 1 2.0023159814615315e+01 1.2248559998739282e+01 3.7582500234291114e+00 0 0 0
1321 1 2.3975781026625626e+01 1.0714179477470402e+01 2.5358342299524583e+00 0 0 0
1393 1 2.5328195249185480e+01 1.2161055483469539e+01 3.9296403509291431e+00 0 0 0
31 1 -5.1479069034113412e-03 1.3558361484064672e+01 2.3529987706966424e+00 0 0 0
103 1 1.4884209631431946e+00 1.4887369478043386e+01 3.7538728704154938e+00 0 0 0
319 1 5.3602232894367186e+00 1.3452214822040325e+01 2.4616426520687500e+00 0 0 0
391 1 6.7350884044161434e+00 1.4946186585097365e+01 3.8106032928733029e+00 0 0 0
607 1 1.0608224383591889e+01 1.3483192584437269e+01 2.3707100023698229e+00 0 0 0
679 1 1.2001660849093410e+01 1.4822737312409904e+01 3.7772686369554145e+00 0 0 0
895 1 1.6063110902260782e+01 1.3715766735832700e+01 2.4450780149077449e+00 0 0 0
967 1 1.7374416273903599e+01 1.4996121730270053e+01 3.8793155857346657e+00 0 0 0
1183 1 2.1304358385481390e+01 1.3644117621846741e+01 2.4256705056603716e+00 0 0 0
1255 1 2.2710243441586211e+01 1.5017043915494920e+01 3.7368455183968901e+00 0 0 0
2 1 2.4073105497623534e-01 -3.4408651555387959e-01 5.1275398314636957e+00 0 0 0
74 1 1.5018458058106259e+00 1.0517851378736451e+00 6.6070005391144111e+00 0 0 0
290 1 5.3727403613697096e+00 -3.9931451592956085e-01 5.2762063722716350e+00 0 0 0
362 1 6.7666569463958117e+00 1.0356459388157642e+00 6.6820646648200137e+00 0 0 0
578 1 1.0680947097978288e+01 -4.5853531547952409e-01 5.2342109458465513e+00 0 0 0
650 1 1.2128244971022060e+01 9.2292529751766972e-01 6.6771770841050637e+00 0 0 0
866 1 1.6021284395004908e+01 -3.5931609948318660e-01 5.2215332548277642e+00 0 0 0
938 1 1.7320411152419329e+01 9.7250510099397725e-01 6.5670654669548432e+00 0 0 0
1154 1 2.1303387566540792e+01 -2.9303491161285539e-01 5.1161619148575896e+00 0 0 0
1226 1 2.2638482961813146e+01 1.0465299584161178e+00 6.6024804929934300e+00 0 0 0
5696 2 -1.1909724539468904e+00 3.7469570527162586e+00 6.6143021482278561e+00 1 0 0
152 1 2.8647452165121670e+00 2.4859736296226012e+00 5.2221939193216977e+00 0 0 0
224 1 4.1355821304007732e+00 3.8727060117745067e+00 6.6571977959854882e+00 0 0 0
440 1 7.9814422118489583e+00 2.3692693239995135e+00 5.2039169617750707e+00 0 0 0
512 1 9.2577420728885116e+00 3.7444922211115035e+00 6.6258824404258485e+00 0 0 0
728 1 1.3337192021289770e+01 2.4346395676555495e+00 5.1967510442584661e+00 0 0 0
800 1 1.4668380782638117e+01 3.8331664744898983e+00 6.6365459030141070e+00 0 0 0
1016 1 1.8687188634127001e+01 2.3375430969179374e+00 5.1285535069385517e+00 0 0 0
1088 1 1.9983954907125902e+01 3.8056109856603069e+00 6.5405252014309667e+00 0 0 0
1304 1 2.3905680285654263e+01 2.4597202504267681e+00 5.1670138932594005e+00 0 0 0
1376 1 2.5231524430477396e+01 3.7927551461744127e+00 6.6956975488715837e+00 0 0 0
14 1 1.6916144391671165e-01 5.2495552759834636e+00 5.3255734667972350e+00 0 0 0
86 1 1.4588904256448347e+00 6.6253214839343997e+00 6.7387930127950435e+00 0 0 0
302 1 5.4708547402013528e+00 5.2160617152041384e+00 5.2436296780219260e+00 0 0 0
374 1 6.7523171192266016e+00 6.7058788534038749e+00 6.5941495597105382e+00 0 0 0
590 1 1.0588326299931126e+01 5.1198628469871066e+00 5.2165970365536420e+00 0 0 0
662 1 1.1946079634377671e+01 6.5352286135537625e+00 6.6424545121162666e+00 0 0 0
878 1 1.5956457418857710e+01 5.1324361642539698e+00 5.1780248152106632e+00 0 0 0
950 1 1.7170545343391524e+01 6.5695074380305787e+00 6.6582242302428254e+00 0 0 0
1166 1 2.1352659437084714e+01 5.1942841841136671e+00 5.2315147043036863e+00 0 0 0
1238 1 2.2617302815453712e+01 6.6377409501303051e+00 6.5661814286686147e+00 0 0 0
5708 2 -1.2443546333000834e+00 9.3336540428573809e+00 6.6899732323653325e+00 1 0 0
164 1 2.6891443344872230e+00 7.9644379863840777e+00 5.2330096693169779e+00 0 0 0
236 1 4.0832179228579299e+00 9.5102804633661968e+00 6.5510620944875599e+00 0 0 0
452 1 8.0655680090981416e+00 8.0304435628410182e+00 5.2034176168215618e+00 0 0 0
524 1 9.3505673208824192e+00 9.3709878998462361e+00 6.5347157127889695e+00 0 0 0
740 1 1.3354114521311105e+01 7.9002914582106349e+00 5.2186054291269119e+00 0 0 0
812 1 1.4680470446753288e+01 9.4231720466454618e+00 6.5595182865327120e+00 0 0 0
1028 1 1.8609550271645983e+01 7.8753155025344839e+00 5.2484716555642921e+00 0 0 0
1100 1 1.9998620647846877e+01 9.3798004073381449e+00 6.5934412655088037e+00 0 0 0
1316 1 2.3954315707695375e+01 7.9219377882382407e+00 5.2544034546164289e+00 0 0 0
1388 1 2.5296597530587867e+01 9.3444584335556460e+00 6.5894572132558213e+00 0 0 0
26 1 6.5125643784602089e-02 1.0844659663606299e+01 5.2290381333385154e+00 0 0 0
98 1 1.4593439243149957e+00 1.2156255962261710e+01 6.6393053142463065e+00 0 0 0
314 1 5.4904304495591445e+00 1.0857587335040934e+01 5.0518991340457147e+00 0 0 0
386 1 6.6317118729167612e+00 1.2262917123885227e+01 6.5955099627126090e+00 0 0 0
602 1 1.0705048313038141e+01 1.0668205943262555e+01 5.1710719531609719e+00 0 0 0
674 1 1.2075125940130192e+01 1.2053220859768892e+01 6.5589077316116757e+00 0 0 0
890 1 1.6172148135001020e+01 1.0700262728624104e+01 5.2070562920192502e+00 0 0 0
962 1 1.7417458687421007e+01 1.2031266916487374e+01 6.6578209207884038e+00 0 0 0
1178 1 2.1239879518561033e+01 1.0737621698104215e+01 5.1760125466260991e+00 0 0 0
1250 1 2.2648441816275096e+01 1.2137314016127203e+01 6.4507772471732707e+00 0 0 0
5720 2 -1.2520442591566638e+00 1.5038123136703099e+01 6.5479571289583900e+00 1 0 0
176 1 2.7281874926501106e+00 1.3589973296831076e+01 5.1323499365919902e+00 0 0 0
248 1 4.0423506725721543e+00 1.4988164107609323e+01 6.5757892406800540e+00 0 0 0
464 1 8.1022259599966020e+00 1.3544902264828870e+01 5.3303463416281769e+00 0 0 0
536 1 9.4847238267399252e+00 1.4918724111831841e+01 6.6477221757568854e+00 0 0 0
752 1 1.3331438740835615e+01 1.3495345135889222e+01 5.2502242105752597e+00 0 0 0
824 1 1.4683335657328659e+01 1.4982933674809219e+01 6.4907014921422057e+00 0 0 0
1040 1 1.8693647250108189e+01 1.3519115620241067e+01 5.2101781986487197e+00 0 0 0
1112 1 1.9944350486210514e+01 1.4968891974752840e+01 6.5539718542779486e+00 0 0 0
1328 1 2.3960500594473388e+01 1.3574181072159007e+01 5.0943537148154583e+00 0 0 0
1400 1 2.5230318293942481e+01 1.4942291502172120e+01 6.6384909432776729e+00 0 0 0
5690 2 -1.2862313571087312e+00 1.0024658642897453e+00 9.3350456380730442e+00 1 0 0
146 1 2.7221518018252318e+00 -3.4629650101160309e-01 8.1033330167232229e+00 0 0 0
218 1 4.0504123593826264e+00 1.0093796595821209e+00 9.3379160162181289e+00 0 0 0
434 1 8.0796455156296236e+00 -3.0297638997519755e-01 8.0441868813644586e+00 0 0 0
506 1 9.3157507674209334e+00 1.0633448427855337e+00 9.3833332635787752e+00 0 0 0
722 1 1.3476836425748877e+01 -5.5171120844752430e-01 8.0606140998473741e+00 0 0 0
794 1 1.4733476752088205e+01 1.0490398240122463e+00 9.3937204687723668e+00 0 0 0
1010 1 1.8601365728991411e+01 -4.6731040858936906e-01 8.0516724104871393e+00 0 0 0
1082 1 1.9964380969449856e+01 1.0150178146631004e+00 9.3476882288136363e+00 0 0 0
1298 1 2.4033230863199147e+01 -2.3333725112469475e-01 7.9439983356265262e+00 0 0 0
1370 1 2.5415091301670394e+01 1.0620430657313231e+00 9.4415692323573719e+00 0 0 0
8 1 1.1946419561204798e-01 2.3832783602382674e+00 8.0295135022006257e+00 0 0 0
80 1 1.5628405239855725e+00 3.8326683245811846e+00 9.4756065367833653e+00 0 0 0
296 1 5.3566119904416230e+00 2.4019728764437041e+00 8.0342267458453946e+00 0 0 0
368 1 6.6689224809751755e+00 3.7833425013682644e+00 9.4510887162434720e+00 0 0 0
584 1 1.0710549114641239e+01 2.4068070037624429e+00 7.9947232186620996e+00 0 0 0
656 1 1.2036930758302487e+01 3.7343045611421082e+00 9.4400210691425617e+00 0 0 0
872 1 1.5977600077484803e+01 2.4184584776071456e+00 8.0136745185166625e+00 0 0 0
944 1 1.7375680310921481e+01 3.8390765514269702e+00 9.4223177190275607e+00 0 0 0
1160 1 2.1276484040722899e+01 2.4984251476344377e+00 7.9885541777587754e+00 0 0 0
1232 1 2.2617419271123250e+01 3.9117009781331902e+00 9.3875650856275854e+00 0 0 0
5702 2 -1.3409652029988268e+00 6.5929083143077927e+00 9.4145747664325423e+00 1 0 0
158 1 2.7716993084507160e+00 5.2188013098414876e+00 8.0657505713221180e+00 0 0 0
230 1 4.1469963478148051e+00 6.6949766537845825e+00 9.4074856421197239e+00 0 0 0
446 1 7.9550506949180733e+00 5.2234089115617852e+00 8.0594210516694798e+00 0 0 0
518 1 9.2964231041624537e+00 6.5843128107616957e+00 9.3988453646079826e+00 0 0 0
734 1 1.3260364876076407e+01 5.1980326921677280e+00 8.1071788061309569e+00 0 0 0
806 1 1.4677349027164096e+01 6.5946611892013793e+00 9.5102589475277561e+00 0 0 0
1022 1 1.8566547354434505e+01 5.1535840316433692e+00 7.9526903779223757e+00 0 0 0
1094 1 1.9956807210856951e+01 6.6433166460763395e+00 9.3775093709745097e+00 0 0 0
1310 1 2.3935236162757395e+01 5.3068177703173314e+00 8.1471485808886186e+00 0 0 0
1382 1 2.5390818685427401e+01 6.6468284968246714e+00 9.4335635386473413e+00 0 0 0
20 1 5.2195157571075783e-02 7.8984582782040986e+00 8.0568011506962520e+00 0 0 0
92 1 1.3846830826289094e+00 9.4022000935075916e+00 9.4510498368962939e+00 0 0 0
308 1 5.4201501233912346e+00 8.1498080018819383e+00 7.9298527313375002e+00 0 0 0
380 1 6.6619365578888496e+00 9.4526553729443226e+00 9.3781480271392894e+00 0 0 0
596 1 1.0589164324281128e+01 7.9328656809386056e+00 7.9427531841308365e+00 0 0 0
668 1 1.2030312334705256e+01 9.2692907134957174e+00 9.3518379748274612e+00 0 0 0
884 1 1.5890204181120268e+01 7.9295961736330742e+00 7.9933685408444797e+00 0 0 0
956 1 1.7237792497108863e+01 9.2605168656897199e+00 9.4333105500936263e+00 0 0 0
1172 1 2.1300176789890720e+01 8.1164921311190827e+00 8.0751742005033087e+00 0 0 0
1244 1 2.2742778305124936e+01 9.4712293632476268e+00 9.3374929193458858e+00 0 0 0
5714 2 -1.2428171547465632e+00 1.2180041134710793e+01 9.3136719447933363e+00 1 0 0
170 1 2.8228718823867784e+00 1.0855929372059382e+01 8.0901399102982179e+00 0 0 0
242 1 4.1064395777247267e+00 1.2222541594483809e+01 9.4604222083800664e+00 0 0 0
458 1 7.9994023893795578e+00 1.0860214920406618e+01 7.9636311013416066e+00 0 0 0
530 1 9.2810522340895094e+00 1.2127930898505330e+01 9.3948836137797276e+00 0 0 0
746 1 1.3314201502999152e+01 1.0680791517630437e+01 7.9335606761886597e+00 0 0 0
818 1 1.4581576556335342e+01 1.2137544036900016e+01 9.3657640212924704e+00 0 0 0
1034 1 1.8613306461954146e+01 1.0612249163129723e+01 8.0509654688087640e+00 0 0 0
1106 1 1.9974692324278557e+01 1.2070760593861339e+01 9.3209720607239888e+00 0 0 0
1322 1 2.3970565634455372e+01 1.0868872763284429e+01 7.9063452529992198e+00 0 0 0
1394 1 2.5247529622909344e+01 1.2194107736062891e+01 9.4431714551992236e+00 0 0 0
32 1 7.9895591799283031e-02 1.3553231993059869e+01 7.9298837680240135e+00 0 0 0
104 1 1.3185662181288682e+00 1.4891748245992391e+01 9.3580275690839478e+00 0 0 0
320 1 5.3669961252986065e+00 1.3616677875903642e+01 7.9912132208367721e+00 0 0 0
392 1 6.7350938622969556e+00 1.4905159848945107e+01 9.3208601261119739e+00 0 0 0
608 1 1.0688022860227520e+01 1.3365490653276270e+01 7.9426325659368633e+00 0 0 0
680 1 1.2051123420736145e+01 1.4916554142264422e+01 9.3315108240000963e+00 0 0 0
896 1 1.6029664271035713e+01 1.3513013862036656e+01 7.9110037636070363e+00 0 0 0
968 1 1.7385861517980402e+01 1.4921380932738955e+01 9.3651148401567585e+00 0 0 0
1184 1 2.1312394791328167e+01 1.3479053670544868e+01 7.8427458683321323e+00 0 0 0
1256 1 2.2611030329214302e+01 1.4921842167920202e+01 9.3739910890453473e+00 0 0 0
3 1 9.9945240730310317e-02 -3.7253763685296198e-01 1.0655937222803210e+01 0 0 0
75 1 1.3681745808878529e+00 1.0285915258596063e+00 1.2115586516777981e+01 0 0 0
291 1 5.3186224449080806e+00 -3.9310141466902659e-01 1.0783859722079702e+01 0 0 0
363 1 6.6518678747538029e+00 9.2966590647661651e-01 1.2296291115000541e+01 0 0 0
579 1 1.0820516788056521e+01 -2.8653760329106759e-01 1.0780791824850507e+01 0 0 0
651 1 1.2105306118775285e+01 1.0422846762538560e+00 1.2247029392576270e+01 0 0 0
867 1 1.5869453884672774e+01 -4.0267135320524172e-01 1.0877004059205802e+01 0 0 0
939 1 1.7400490572510044e+01 7.9066802881873965e-01 1.2260256521033348e+01 0 0 0
1155 1 2.1301567189887425e+01 -3.4470987487509058e-01 1.0776825178602214e+01 0 0 0
1227 1 2.2657404775749740e+01 1.0268894805218649e+00 1.2231828530330711e+01 0 0 0
5697 2 -1.4074475161992934e+00 3.7538769826357030e+00 1.2008802484198819e+01 1 0 0
153 1 2.8468054584329128e+00 2.3724013160116773e+00 1.0811101868611710e+01 0 0 0
225 1 4.1239509559882457e+00 3.7760916545588770e+00 1.2263506605893438e+01 0 0 0
441 1 8.0450488579189230e+00 2.3520135437790799e+00 1.0816447884484237e+01 0 0 0
513 1 9.2821034631879069e+00 3.8257245607016808e+00 1.2197007561086146e+01 0 0 0
729 1 1.3445121477714739e+01 2.3947048816249361e+00 1.0884222452068308e+01 0 0 0
801 1 1.4680758718737129e+01 3.7770161254930752e+00 1.2162178943226609e+01 0 0 0
1017 1 1.8624157270097093e+01 2.3252954434445829e+00 1.0791771612971495e+01 0 0 0
1089 1 1.9918339421173965e+01 3.6993860020839757e+00 1.2172598222738804e+01 0 0 0
1305 1 2.3984689916956871e+01 2.5203359912068692e+00 1.0749416257155636e+01 0 0 0
1377 1 2.5299172300102438e+01 3.8377203190503506e+00 1.2171419272250754e+01 0 0 0
15 1 7.6802987835782724e-02 5.2859581109714888e+00 1.0717546612850780e+01 0 0 0
87 1 1.3672117905526890e+00 6.5709348055910990e+00 1.2138155565657843e+01 0 0 0
303 1 5.3803340369036698e+00 5.2096911599211344e+00 1.0835273461769003e+01 0 0 0
375 1 6.5825633634897507e+00 6.7029083521974302e+00 1.2192816335857431e+01 0 0 0
591 1 1.0724933595696276e+01 5.1272087651929592e+00 1.0754968795847816e+01 0 0 0
663 1 1.1986166109469838e+01 6.6042961253001042e+00 1.2211241383081996e+01 0 0 0
879 1 1.6120480406750765e+01 5.1825893345336054e+00 1.0906283091370872e+01 0 0 0
951 1 1.7400625894888599e+01 6.6068137434421175e+00 1.2293477915596840e+01 0 0 0
1167 1 2.1189112365266244e+01 5.2056679999980080e+00 1.0822009118108204e+01 0 0 0
1239 1 2.2583397311010607e+01 6.4713435005019670e+00 1.2198217936072588e+01 0 0 0
5709 2 -1.3537711161879915e+00 9.4103176357715839e+00 1.2139914768400351e+01 1 0 0
165 1 2.7456768144445558e+00 8.0697487724427575e+00 1.0759676522950530e+01 0 0 0
237 1 3.9923427083231942e+00 9.4370471068857249e+00 1.2223672481230434e+01 0 0 0
453 1 7.8910962086235488e+00 8.0965638951587238e+00 1.0722079689931240e+01 0 0 0
525 1 9.2890502728199618e+00 9.3375196840454908e+00 1.2172219805257049e+01 0 0 0
741 1 1.3315932379038248e+01 7.9612660408288667e+00 1.0892202093589072e+01 0 0 0
813 1 1.4681892406441946e+01 9.3196653423855071e+00 1.2328756776561683e+01 0 0 0
1029 1 1.8627068083738166e+01 8.0508081485200513e+00 1.0850880892171276e+01 0 0 0
1101 1 2.0029452882898191e+01 9.4538128651241458e+00 1.2185363035053587e+01 0 0 0
1317 1 2.3901158613112852e+01 7.9210952714074851e+00 1.0839243028323752e+01 0 0 0
1389 1 2.5330478630909830e+01 9.2329842857374604e+00 1.2210646973247025e+01 0 0 0
27 1 -1.5812185375815597e-02 1.0792229783024162e+01 1.0746415603632869e+01 0 0 0
99 1 1.3910463492582803e+00 1.2099590441309442e+01 1.2205403986127825e+01 0 0 0
315 1 5.2060038766206560e+00 1.0771922301070353e+01 1.0775835677369177e+01 0 0 0
387 1 6.6792146781236639e+00 1.2145709843765248e+01 1.2173472493844889e+01 0 0 0
603 1 1.0643372870985289e+01 1.0668443313285200e+01 1.0763604672032871e+01 0 0 0
675 1 1.1948404683800907e+01 1.2131682179272868e+01 1.2178465960800411e+01 0 0 0
891 1 1.5904384877869964e+01 1.0644958702876748e+01 1.0838606297635440e+01 0 0 0
963 1 1.7256162485226991e+01 1.2084121668842982e+01 1.2081088637777663e+01 0 0 0
1179 1 2.1391081540337080e+01 1.0739649951775549e+01 1.0782527693670946e+01 0 0 0
1251 1 2.2677613523344011e+01 1.2307710367682065e+01 1.2184669012097512e+01 0 0 0
5721 2 -1.3171856154552897e+00 1.4905888070371956e+01 1.2162110629274315e+01 1 0 0
177 1 2.7266674950626189e+00 1.3557208541838481e+01 1.0809773083613210e+01 0 0 0
249 1 4.0504499575242461e+00 1.4967617860479624e+01 1.2221760847885774e+01 0 0 0
465 1 8.0352649758447434e+00 1.3598845030204775e+01 1.0727402724266161e+01 0 0 0
537 1 9.4786219643859724e+00 1.5006786040071091e+01 1.2159008676547899e+01 0 0 0
753 1 1.3297533224950516e+01 1.3530021284366107e+01 1.0750504656652152e+01 0 0 0
825 1 1.4605087070860911e+01 1.4881747997596797e+01 1.2148316624759168e+01 0 0 0
1041 1 1.8604521110146205e+01 1.3497198464044814e+01 1.0635826911422798e+01 0 0 0
1113 1 1.9863564806883421e+01 1.4861678166711206e+01 1.2112938009090584e+01 0 0 0
1329 1 2.3928324588963424e+01 1.3696695755837785e+01 1.0804433920353885e+01 0 0 0
1401 1 2.5341107897457981e+01 1.4960223539802877e+01 1.2177169601126936e+01 0 0 0
5691 2 -1.3600803824236958e+00 9.5511823753392933e-01 1.4852602993731393e+01 1 0 0
147 1 2.5823273973526284e+00 -3.9883571325551409e-01 1.3662953701014592e+01 0 0 0
219 1 4.0167850912453300e+00 9.7030780722436216e-01 1.5131846789957610e+01 0 0 0
435 1 8.0135834183241332e+00 -3.6900663219431562e-01 1.3614814271937396e+01 0 0 0
507 1 9.3734971276976857e+00 1.0576226096913006e+00 1.5015337887919724e+01 0 0 0
723 1 1.3324895883380615e+01 -5.6133113430792492e-01 1.3665410375923679e+01 0 0 0
795 1 1.4612747187307111e+01 9.2754475061028918e-01 1.4985266287112568e+01 0 0 0
1011 1 1.8755985861999008e+01 -5.3546020541425221e-01 1.3571964642527128e+01 0 0 0
1083 1 1.9967895351550045e+01 9.0791177327463413e-01 1.4954464468823343e+01 0 0 0
1299 1 2.4092668607009919e+01 -3.6678039304526117e-01 1.3676159198388197e+01 0 0 0
1371 1 2.5361854802665199e+01 1.0534952736719783e+00 1.4955523432119861e+01 0 0 0
9 1 5.5459966015657121e-02 2.4997818681607082e+00 1.3513817269115135e+01 0 0 0
81 1 1.4947467546291653e+00 3.8019992184392266e+00 1.4943556017791568e+01 0 0 0
297 1 5.3908227968265452e+00 2.3317257795355326e+00 1.3754998010401689e+01 0 0 0
369 1 6.7061898525232815e+00 3.7964654206658843e+00 1.5024829226391695e+01 0 0 0
585 1 1.0676968535460032e+01 2.3656452931598180e+00 1.3514732944456973e+01 0 0 0
657 1 1.2061141706765994e+01 3.6950676904216606e+00 1.4863999865959673e+01 0 0 0
873 1 1.5948860230369794e+01 2.3310062935290681e+00 1.3632168498779460e+01 0 0 0
945 1 1.7443404961583941e+01 3.7588770771476634e+00 1.4888466524428598e+01 0 0 0
1161 1 2.1254664887310607e+01 2.3801361494332149e+00 1.3521370861641060e+01 0 0 0
1233 1 2.2646930709312546e+01 3.7088399865903843e+00 1.4941342613206574e+01 0 0 0
5703 2 -1.3931075774581252e+00 6.5816973079408854e+00 1.5023604840469421e+01 1 0 0
159 1 2.8156360942785987e+00 5.1716498779690463e+00 1.3673779111510155e+01 0 0 0
231 1 4.0226051839920176e+00 6.7515393302416697e+00 1.4956905715034457e+01 0 0 0
447 1 7.9436647283731059e+00 5.1834024793202715e+00 1.3543525904655837e+01 0 0 0
519 1 9.3616042396392576e+00 6.5624349738078340e+00 1.5002564907630939e+01 0 0 0
735 1 1.3350191831982418e+01 5.1421279723345625e+00 1.3497191154815155e+01 0 0 0
807 1 1.4602413526856456e+01 6.4679677855980557e+00 1.4992144652966820e+01 0 0 0
1023 1 1.8756768795706435e+01 5.2054336751047403e+00 1.3601404055692324e+01 0 0 0
1095 1 2.0104259204220654e+01 6.5501876315673657e+00 1.5070360663891472e+01 0 0 0
1311 1 2.3874166307983330e+01 5.1566586690914624e+00 1.3578600198775082e+01 0 0 0
1383 1 2.5375535439957801e+01 6.4926399956415386e+00 1.4988551405329348e+01 0 0 0
21 1 -3.3312747345173498e-02 7.9844383087326456e+00 1.3537633804133341e+01 0 0 0
93 1 1.3857242314383196e+00 9.4322851657865101e+00 1.4945136147421477e+01 0 0 0
309 1 5.3957555262983039e+00 8.1213647009240422e+00 1.3578631299556776e+01 0 0 0
381 1 6.6944722287615148e+00 9.4195571196494221e+00 1.4999862223463968e+01 0 0 0
597 1 1.0606517369565172e+01 7.9435638090149290e+00 1.3601945789577881e+01 0 0 0
669 1 1.1917440544381332e+01 9.3971575260156985e+00 1.5029055734048388e+01 0 0 0
885 1 1.6085725544204436e+01 7.9911213336489739e+00 1.3714166807041241e+01 0 0 0
957 1 1.7364284830028119e+01 9.4086348880860502e+00 1.4988024837911825e+01 0 0 0
1173 1 2.1319337957943265e+01 7.9541143648129609e+00 1.3602570048047358e+01 0 0 0
1245 1 2.2630566002560602e+01 9.4646693630639689e+00 1.4907440091368054e+01 0 0 0
5715 2 -1.2561967258001756e+00 1.2149456734853255e+01 1.4903920049688102e+01 1 0 0
171 1 2.6784025531922597e+00 1.0825969390262486e+01 1.3610594310460449e+01 0 0 0
243 1 4.1057108286615964e+00 1.2141881758557160e+01 1.4865654342169417e+01 0 0 0
459 1 8.0242095591560219e+00 1.0763527843307518e+01 1.3550893201064909e+01 0 0 0
531 1 9.2561581962474655e+00 1.2148451643266398e+01 1.4939101740142716e+01 0 0 0
747 1 1.3359242000992678e+01 1.0718368471149306e+01 1.3625799509177021e+01 0 0 0
819 1 1.4658640169213268e+01 1.2080749662247550e+01 1.4884647343431137e+01 0 0 0