LAMMPS data file via write_data, version 12 Dec 2018, timestep = 112934

2048 atoms
2 atom types

-1.4050242610424277e+00 8.6943274261042461e+01 xlo xhi
-9.5953278981853174e-01 2.1325782789818426e+01 ylo yhi
-9.3884745841951833e-01 2.1305097458419532e+01 zlo zhi

Masses

1 28.0855
2 72.64

Atoms # atomic

1 1 1.3724291144671008e-01 -2.3242362729123989e-01 -3.0827548874802146e-01 0 0 0
33 1 1.4884572768255344e+00 1.1282112753175968e+00 1.1578574973575011e+00 0 0 0
129 1 5.4802238659340441e+00 -3.9092262556912932e-01 -1.9608826397946574e-01 0 0 0
161 1 6.7724490781790365e+00 1.0643160299343946e+00 1.0947750443635615e+00 0 0 0
257 1 1.0602484292117904e+01 -2.7940176358844754e-01 -2.6875831359982782e-01 0 0 0
289 1 1.2016677983716608e+01 1.1128794909101176e+00 1.2340148808027007e+00 0 0 0
385 1 1.5991597211214156e+01 -1.6241988835752449e-01 -1.4373216748296674e-01 0 0 0
417 1 1.7305050091077948e+01 1.0549979133531067e+00 1.3645716504496022e+00 0 0 0
2021 2 -1.2836197314152917e+00 3.9003535418718629e+00 1.1923398516104466e+00 1 0 0
69 1 2.7630673419939926e+00 2.4395266727057558e+00 -3.2006836131507183e-01 0 0 0
101 1 4.1770822185625578e+00 3.8142977954055945e+00 1.1368996167603351e+00 0 0 0
197 1 8.0235311917371828e+00 2.5126454827333125e+00 -2.0403517745285404e-01 0 0 0
229 1 9.4268485549275329e+00 3.8067559211609314e+00 1.1137367660448312e+00 0 0 0
325 1 1.3356035740904026e+01 2.6003439519389757e+00 -2.4798753060495346e-01 0 0 0
357 1 1.4712548053660404e+01 4.0314057289915795e+00 1.1854771257686190e+00 0 0 0
453 1 1.8587720634412452e+01 2.3986809358957051e+00 -1.9785438429786503e-01 0 0 0
485 1 1.9923036587505290e+01 3.9096660915404398e+00 1.1618157805209623e+00 0 0 0
9 1 9.5115929538662131e-02 5.3133229416779351e+00 -2.4300293538726825e-01 0 0 0
41 1 1.4675897177201018e+00 6.6436264622405421e+00 1.1945786407661638e+00 0 0 0
137 1 5.5044648858182290e+00 5.2412554155201159e+00 -2.3922977082123995e-01 0 0 0
169 1 6.8749931933646229e+00 6.6677294134681775e+00 1.1816054150006952e+00 0 0 0
265 1 1.0675175032122144e+01 5.2073952883184829e+00 -1.7601998852844941e-01 0 0 0
297 1 1.1946407228461201e+01 6.6162884634395915e+00 1.1815506089839569e+00 0 0 0
393 1 1.6038882506925038e+01 5.3171083039246101e+00 -1.8164475627459348e-01 0 0 0
425 1 1.7259544757192486e+01 6.7239305101565288e+00 1.2547988543598254e+00 0 0 0
2029 2 -1.2429189349555310e+00 9.5132016861893227e+00 1.1400859601259852e+00 1 0 0
77 1 2.8526033079223381e+00 8.0068049257557377e+00 -1.8775186238846650e-01 0 0 0
109 1 4.1613587886843764e+00 9.4646797888172092e+00 1.1077010114155621e+00 0 0 0
205 1 8.1039763307731434e+00 8.1682717196121004e+00 -2.4601998712237549e-01 0 0 0
237 1 9.3640108634208694e+00 9.3794996804464681e+00 1.1756403297921527e+00 0 0 0
333 1 1.3257428536631554e+01 7.9880011264977444e+00 -2.3157747657315314e-01 0 0 0
365 1 1.4592148200409364e+01 9.5282787093892196e+00 1.1287178334012034e+00 0 0 0
461 1 1.8521570518123980e+01 8.0963369763028297e+00 -2.4104572988187542e-01 0 0 0
493 1 2.0051343224550909e+01 9.4545431259039230e+00 1.0873016820690657e+00 0 0 0
17 1 3.9993559648451284e-02 1.0836268420082568e+01 -3.2727830553569931e-01 0 0 0
49 1 1.4309478456173284e+00 1.2205638788331141e+01 1.1320359374611284e+00 0 0 0
145 1 5.4872524845750652e+00 1.0915596900791112e+01 -2.8944012766713589e-01 0 0 0
177 1 6.8171822583854365e+00 1.2161727011065844e+01 1.1944149907980530e+00 0 0 0
273 1 1.0629591282556708e+01 1.0852027163561614e+01 -2.0000755586501484e-01 0 0 0
305 1 1.1934715077691369e+01 1.2301622018339273e+01 1.1602282174714285e+00 0 0 0
401 1 1.5933472275435477e+01 1.1003712430009969e+01 -1.9370281422691446e-01 0 0 0
433 1 1.7385739213120200e+01 1.2285923843062234e+01 1.2046733797672344e+00 0 0 0
2037 2 -1.3053745804115897e+00 1.5070770919533864e+01 1.1201100596491775e+00 1 0 0
85 1 2.7108708069437357e+00 1.3590228525654737e+01 -2.9985754671431181e-01 0 0 0
117 1 4.1155603927544169e+00 1.4991132950263106e+01 1.1831639988195781e+00 0 0 0
213 1 8.1668714777317550e+00 1.3595283961002385e+01 -1.9805691108760104e-01 0 0 0
245 1 9.3595621294718647e+00 1.5155571962377923e+01 1.2129544394494152e+00 0 0 0
341 1 1.3247080332321346e+01 1.3702189597510037e+01 -1.0632748700019019e-01 0 0 0
373 1 1.4686619031819305e+01 1.5037608911268533e+01 1.1077580252913115e+00 0 0 0
469 1 1.8734302957538361e+01 1.3651571261278596e+01 -2.6016989320923334e-01 0 0 0
501 1 2.0020218516833204e+01 1.5008280248415895e+01 1.1204003128935847e+00 0 0 0
25 1 8.5586934827150310e-02 1.6396299278680850e+01 -2.7655390172108191e-01 0 0 0
57 1 1.2829877120765254e+00 1.7768359794806795e+01 1.1133331470502161e+00 0 0 0
153 1 5.4149385701367869e+00 1.6356055030730751e+01 -1.2131962132168310e-01 0 0 0
185 1 6.7219691619810717e+00 1.7950576791997619e+01 1.0405727110952518e+00 0 0 0
281 1 1.0639352704027235e+01 1.6403395437218048e+01 -2.8611113100823077e-01 0 0 0
313 1 1.1984816731733199e+01 1.7872077444587095e+01 1.1231278136586551e+00 0 0 0
409 1 1.5928158262027338e+01 1.6404601962954452e+01 -2.6003679130981422e-01 0 0 0
441 1 1.7274222723660689e+01 1.7836304805740909e+01 9.8007393203256254e-01 0 0 0
2045 2 -1.3286465597787178e+00 2.0639441388083451e+01 1.1334693818096087e+00 1 0 0
93 1 2.7496619983078343e+00 1.9145348285282523e+01 -1.6949290715218299e-01 0 0 0
125 1 4.1807259637178618e+00 2.0599545892501197e+01 1.1739780821379893e+00 0 0 0
221 1 8.0922000994581129e+00 1.9128855567569577e+01 -2.9219672409585645e-01 0 0 0
253 1 9.3142181311243313e+00 2.0571997610934002e+01 1.1621059590386067e+00 0 0 0
349 1 1.3197888015313010e+01 1.9257223638062012e+01 -2.5181664372955487e-01 0 0 0
381 1 1.4580578998427734e+01 2.0585900094085979e+01 1.1767331169934623e+00 0 0 0
477 1 1.8564284601426607e+01 1.9206317532276650e+01 -3.2657925248528735e-01 0 0 0
509 1 1.9877114827446462e+01 2.0608066451820321e+01 1.1213799253659880e+00 0 0 0
2017 2 -1.2569474742133848e+00 1.1706217139780746e+00 3.8482907126270214e+00 1 0 0
65 1 2.8338899886399820e+00 -2.9293597924389159e-01 2.5294279316343005e+00 0 0 0
97 1 4.0928309471645434e+00 1.1793908006278648e+00 3.8976970908414734e+00 0 0 0
193 1 8.0503085389449076e+00 -4.0475292247584049e-01 2.6120277647370655e+00 0 0 0
225 1 9.4204250700202259e+00 1.0871857612563551e+00 3.8921830774285002e+00 0 0 0
321 1 1.3354907274560421e+01 -2.7445405169307613e-01 2.5829762782416950e+00 0 0 0
353 1 1.4781860994039905e+01 1.0416578030182986e+00 3.9448884538900724e+00 0 0 0
449 1 1.8680088089538785e+01 -3.9312866198707019e-01 2.6966714547041484e+00 0 0 0
481 1 1.9934719174169054e+01 1.1084522168902806e+00 3.9785354274572358e+00 0 0 0
5 1 1.9702909693147494e-01 2.4983795941004505e+00 2.4854690061015146e+00 0 0 0
37 1 1.4994316844568045e+00 3.8148019478049453e+00 3.9290966532618747e+00 0 0 0
133 1 5.4380010827689569e+00 2.5192769528765719e+00 2.5577890634628893e+00 0 0 0
165 1 6.8528462552726470e+00 3.8642607265521383e+00 4.0128976865073192e+00 0 0 0
261 1 1.0729765854656865e+01 2.4915374759290909e+00 2.5445300424934998e+00 0 0 0
293 1 1.2039634571735650e+01 3.8789884745476360e+00 4.0574177809323837e+00 0 0 0
389 1 1.5920324937807699e+01 2.6213845330721135e+00 2.5801110548493873e+00 0 0 0
421 1 1.7307070631778025e+01 3.9792401919096032e+00 4.0939743272561122e+00 0 0 0
2025 2 -1.2486496844930299e+00 6.6263023651562181e+00 3.9548541114018896e+00 1 0 0
73 1 2.8360924830281391e+00 5.2453321492747866e+00 2.5187585494147369e+00 0 0 0
105 1 4.2396294797182481e+00 6.6418756289589798e+00 3.7344416954602111e+00 0 0 0
201 1 8.1194627005030178e+00 5.2069316548751932e+00 2.4973489757331229e+00 0 0 0
233 1 9.3689165748384315e+00 6.6794951623325947e+00 3.9006105469694416e+00 0 0 0
329 1 1.3315901484653603e+01 5.2710783048386505e+00 2.6056744674341110e+00 0 0 0
361 1 1.4623460812311141e+01 6.7824424783594077e+00 3.8713012307630446e+00 0 0 0
457 1 1.8631679794925105e+01 5.3365175083148486e+00 2.6312500907759158e+00 0 0 0
489 1 1.9981252919209634e+01 6.7236352120934280e+00 3.9339262831261927e+00 0 0 0
13 1 6.4763268999040738e-02 8.0568389553893791e+00 2.5633860399911379e+00 0 0 0
45 1 1.4459467245479822e+00 9.4182888537736815e+00 3.9303496625391952e+00 0 0 0
141 1 5.5085416912615885e+00 8.1029646762768639e+00 2.4307774578729520e+00 0 0 0
173 1 6.7605881931910465e+00 9.4508564837373417e+00 3.9223114832760180e+00 0 0 0
269 1 1.0775941326614566e+01 8.0460340529881620e+00 2.6001379592401253e+00 0 0 0
301 1 1.1989090139210031e+01 9.4609690973875775e+00 3.9945772823466865e+00 0 0 0
397 1 1.5958217315436416e+01 8.1828594639343546e+00 2.5159691410088749e+00 0 0 0
429 1 1.7199825452294114e+01 9.5537369245448982e+00 3.9324626303197343e+00 0 0 0
2033 2 -1.2703253716854208e+00 1.2175118799515314e+01 4.0187056452108472e+00 1 0 0
81 1 2.8288340057403705e+00 1.0880384511805671e+01 2.5306267311209125e+00 0 0 0
113 1 3.9711686870685710e+00 1.2221770922786806e+01 3.9387049911028105e+00 0 0 0
209 1 8.0516981840227864e+00 1.0784155912566352e+01 2.6146875424581344e+00 0 0 0
241 1 9.2992290405396005e+00 1.2257277050202228e+01 3.8614399068844296e+00 0 0 0
337 1 1.3198957978197932e+01 1.0927656225539044e+01 2.5430840479652552e+00 0 0 0
369 1 1.4653080496037358e+01 1.2225734936362928e+01 3.8788187403657037e+00 0 0 0
465 1 1.8629088250793842e+01 1.0738082724035037e+01 2.5217963190052424e+00 0 0 0
497 1 1.9916007803963247e+01 1.2200769551700153e+01 3.8652276262972367e+00 0 0 0
21 1 5.0689728550792103e-02 1.3521643861465089e+01 2.4684758601421457e+00 0 0 0
53 1 1.3912386652025286e+00 1.4940515006807271e+01 3.7779035839688255e+00 0 0 0
149 1 5.4210164465468651e+00 1.3633580964180130e+01 2.5379921032080355e+00 0 0 0
181 1 6.6834651309015545e+00 1.5140747797152136e+01 3.8578883669797843e+00 0 0 0
277 1 1.0647682037807018e+01 1.3640207736947289e+01 2.5093806001283792e+00 0 0 0
309 1 1.1917491246349545e+01 1.5121337449423105e+01 3.8857010740274984e+00 0 0 0
405 1 1.6049195820215996e+01 1.3722736111046224e+01 2.4975784630777915e+00 0 0 0
437 1 1.7411060239146842e+01 1.5096333248683802e+01 3.8581522470793446e+00 0 0 0
2041 2 -1.2745203917444030e+00 1.7922165235072359e+01 3.9028635798275819e+00 1 0 0
89 1 2.7172329035361868e+00 1.6388551854435267e+01 2.5500823627273936e+00 0 0 0
121 1 4.0032808989809885e+00 1.7825273351358998e+01 3.9681612018376957e+00 0 0 0
217 1 8.0022796797140749e+00 1.6604719171070339e+01 2.5574493640137717e+00 0 0 0
249 1 9.2322195626345156e+00 1.7864570052386682e+01 4.0030520261974356e+00 0 0 0
345 1 1.3317889160063055e+01 1.6415200401358998e+01 2.5176631909774474e+00 0 0 0
377 1 1.4780370179845910e+01 1.7843718880748725e+01 3.8560780742850249e+00 0 0 0
473 1 1.8668874414003845e+01 1.6484088928394481e+01 2.3861879647236326e+00 0 0 0
505 1 1.9830153279663573e+01 1.7864575682627780e+01 3.8450067624735556e+00 0 0 0
29 1 1.0438967550010493e-01 1.9287835582269466e+01 2.4572855440026045e+00 0 0 0
61 1 1.4334531673176514e+00 2.0612399145931612e+01 3.8641594863250202e+00 0 0 0
157 1 5.3775962034780607e+00 1.9188091968741190e+01 2.5520748238085020e+00 0 0 0
189 1 6.6756529187230615e+00 2.0557940357160131e+01 3.9312796349136563e+00 0 0 0
285 1 1.0592683606198538e+01 1.9148205020247719e+01 2.5405148030491733e+00 0 0 0
317 1 1.2037374548808028e+01 2.0581613070193587e+01 3.9091194377990597e+00 0 0 0
413 1 1.5900081773609708e+01 1.9251750706753299e+01 2.3694540518887304e+00 0 0 0
445 1 1.7190751794729408e+01 2.0468338795856269e+01 3.9273587443684299e+00 0 0 0
2 1 1.0121557722751398e-01 -2.4988470723596817e-01 5.2035693550068549e+00 0 0 0
34 1 1.4292210932359386e+00 1.0825452763640224e+00 6.7062058759199070e+00 0 0 0
130 1 5.3837588631844788e+00 -2.4559390420771124e-01 5.2808831143373558e+00 0 0 0
162 1 6.6745319767195692e+00 1.1000595868888590e+00 6.7212234584723181e+00 0 0 0
258 1 1.0632774392011351e+01 -2.9318976195722485e-01 5.2685870678228888e+00 0 0 0
290 1 1.1971004929557932e+01 1.0605784013146284e+00 6.6649697534405536e+00 0 0 0
386 1 1.6084343994774237e+01 -3.4724100198871927e-01 5.3865070583836836e+00 0 0 0
418 1 1.7270480343877143e+01 1.0868317236124909e+00 6.7586624565872437e+00 0 0 0
2022 2 -1.3228526589980707e+00 3.8871042543423768e+00 6.6449922017482441e+00 1 0 0
70 1 2.7591342064491169e+00 2.4721494308243495e+00 5.3261263292318946e+00 0 0 0
102 1 4.0378036807163307e+00 3.8772149738210899e+00 6.7221949000847152e+00 0 0 0
198 1 8.1239707150686407e+00 2.3829096979899398e+00 5.3809603760929416e+00 0 0 0
230 1 9.4304297485516191e+00 3.9409639729671277e+00 6.8122615692455462e+00 0 0 0
326 1 1.3405022665221365e+01 2.3867586835724914e+00 5.3440982246590920e+00 0 0 0
358 1 1.4667111729659215e+01 3.9355501202764738e+00 6.7108674601774254e+00 0 0 0
454 1 1.8580680656827642e+01 2.4054891003342407e+00 5.3919770622460490e+00 0 0 0
486 1 1.9952574808846027e+01 3.8872792843119184e+00 6.7808983853990661e+00 0 0 0
10 1 1.4025691912952531e-01 5.2117635934972499e+00 5.2958483448796603e+00 0 0 0
42 1 1.5227824341369123e+00 6.6643514325860647e+00 6.6012367028993753e+00 0 0 0
138 1 5.4702609618057707e+00 5.2258424175814371e+00 5.3142309273115966e+00 0 0 0
170 1 6.7433027332095534e+00 6.7279668167056865e+00 6.7446484471888448e+00 0 0 0
266 1 1.0644582073157398e+01 5.3797015199561402e+00 5.3300398093241999e+00 0 0 0
298 1 1.2009590896128564e+01 6.6371246366441712e+00 6.7205933464146685e+00 0 0 0
394 1 1.5989449437423019e+01 5.4792939812570527e+00 5.4540785698469625e+00 0 0 0
426 1 1.7391103897840210e+01 6.8084313693859571e+00 6.7573246331557497e+00 0 0 0
2030 2 -1.2387513037145250e+00 9.4186880453799358e+00 6.7431053156477780e+00 1 0 0
78 1 2.8550133238301383e+00 7.9939756609255816e+00 5.2037028563824688e+00 0 0 0
110 1 4.0684318509016437e+00 9.4816763349391859e+00 6.6568396799008251e+00 0 0 0
206 1 8.0557580598980749e+00 8.0921631516167274e+00 5.3259668024015339e+00 0 0 0
238 1 9.4335403477983526e+00 9.5144537168946943e+00 6.6061728852547006e+00 0 0 0
334 1 1.3353984581238780e+01 8.1646014558122548e+00 5.4488501762592021e+00 0 0 0
366 1 1.4653505702199578e+01 9.5173818323489279e+00 6.7311175974662074e+00 0 0 0
462 1 1.8634896930654001e+01 8.1340029367177173e+00 5.2805953922849627e+00 0 0 0
494 1 1.9923567779367840e+01 9.5302927609554917e+00 6.6846457068323515e+00 0 0 0
18 1 6.1540996672449721e-02 1.0787418254117911e+01 5.3200079368980537e+00 0 0 0
50 1 1.3503162285899493e+00 1.2117021353308120e+01 6.8062455174633687e+00 0 0 0
146 1 5.4375464612600615e+00 1.0809216389658697e+01 5.2979767027673894e+00 0 0 0
178 1 6.6629849344237364e+00 1.2079374156258273e+01 6.6650749589779226e+00 0 0 0
274 1 1.0705665284375920e+01 1.0966551070845069e+01 5.2338090601434297e+00 0 0 0
306 1 1.2083558576566531e+01 1.2320297406655220e+01 6.5541276623920108e+00 0 0 0
402 1 1.5911797561399027e+01 1.0888470656107794e+01 5.3175929587367490e+00 0 0 0
434 1 1.7190793215711423e+01 1.2255968035484962e+01 6.6970300960709572e+00 0 0 0
2038 2 -1.1516301410917149e+00 1.5085283856509971e+01 6.7660900342898209e+00 1 0 0
86 1 2.5559269878926378e+00 1.3565323245375728e+01 5.3097416238579820e+00 0 0 0
118 1 3.9774273017483015e+00 1.4815009775996543e+01 6.6749463574430346e+00 0 0 0
214 1 7.9068959271373727e+00 1.3612304500980807e+01 5.2923035287703843e+00 0 0 0
246 1 9.3195870963748018e+00 1.4951476972543515e+01 6.6881454567090328e+00 0 0 0
342 1 1.3333703604653291e+01 1.3735232033861966e+01 5.1634884041415523e+00 0 0 0
374 1 1.4594340846821890e+01 1.5055555620734660e+01 6.5972900216788348e+00 0 0 0
470 1 1.8625793295043206e+01 1.3700042282654909e+01 5.3391484884756641e+00 0 0 0
502 1 1.9993064948923500e+01 1.4963033954647212e+01 6.7669380760926803e+00 0 0 0
26 1 1.3141461560069628e-01 1.6472562133101516e+01 5.2018215093066154e+00 0 0 0
58 1 1.5348772030501692e+00 1.7960768040211168e+01 6.8304681049547415e+00 0 0 0
154 1 5.2316761802778169e+00 1.6348912199835691e+01 5.3002364825343804e+00 0 0 0
186 1 6.6406489009363838e+00 1.7815709863111319e+01 6.6624957607719866e+00 0 0 0
282 1 1.0649809640855072e+01 1.6453347861463275e+01 5.3012680577751228e+00 0 0 0
314 1 1.2043727868537228e+01 1.7795577272177475e+01 6.6592141254926558e+00 0 0 0
410 1 1.6014366703071847e+01 1.6454052205915595e+01 5.3044074671336112e+00 0 0 0
442 1 1.7230546842791110e+01 1.7786157197769263e+01 6.7383453516447336e+00 0 0 0
2046 2 -1.2336714288836774e+00 2.0609907956359109e+01 6.5958994748953854e+00 1 0 0
94 1 2.8235730261945884e+00 1.9335261545985166e+01 5.2853248763667784e+00 0 0 0
126 1 4.0425583715520057e+00 2.0696636853543268e+01 6.6497471784415412e+00 0 0 0
222 1 7.9705860843330951e+00 1.9181573873225705e+01 5.3722974155482595e+00 0 0 0
254 1 9.4182376762509588e+00 2.0502212727904592e+01 6.7225133301279358e+00 0 0 0
350 1 1.3383543383355608e+01 1.9219978005515003e+01 5.2285280577512081e+00 0 0 0
382 1 1.4643541563934660e+01 2.0563729482409119e+01 6.6684384626398643e+00 0 0 0
478 1 1.8599966034249952e+01 1.9233073837215439e+01 5.2673698307358352e+00 0 0 0
510 1 2.0011249821661607e+01 2.0625877857169648e+01 6.7954601745764291e+00 0 0 0
2018 2 -1.3428401529999776e+00 1.0278079464967629e+00 9.4372484425889933e+00 1 0 0
66 1 2.7232156367194369e+00 -2.5757393561751252e-01 8.0210273601158875e+00 0 0 0
98 1 4.1432925098606628e+00 1.0614497028932826e+00 9.4544362543590292e+00 0 0 0
194 1 8.1243368531103570e+00 -2.5634999096485056e-01 8.0870201617957598e+00 0 0 0
226 1 9.3594620928344145e+00 1.0630732047505140e+00 9.5348541967081726e+00 0 0 0
322 1 1.3327496248611714e+01 -3.3645843417828464e-01 8.1561947969578927e+00 0 0 0
354 1 1.4703086782723023e+01 1.0123498031330318e+00 9.5719186168565678e+00 0 0 0
450 1 1.8578810673741661e+01 -3.4758442348968666e-01 8.2321292535722606e+00 0 0 0
482 1 2.0051199829986441e+01 1.0542451339445593e+00 9.4294441607835893e+00 0 0 0
6 1 1.4086465765629511e-02 2.5026342449543564e+00 8.0466009846291104e+00 0 0 0
38 1 1.3006636708137194e+00 3.9332266862092915e+00 9.4995785220152840e+00 0 0 0
134 1 5.3370071605746432e+00 2.5556038884145194e+00 8.0493846514718630e+00 0 0 0
166 1 6.7681341285070014e+00 3.8607495114517842e+00 9.4924286519904069e+00 0 0 0
262 1 1.0760827694461554e+01 2.4546497380219043e+00 8.1370896180997185e+00 0 0 0
294 1 1.2169199148461113e+01 3.8031086698932524e+00 9.4911428135272295e+00 0 0 0
390 1 1.5899605721472916e+01 2.3896747062828014e+00 8.1869478023150748e+00 0 0 0
422 1 1.7274472628661449e+01 3.8201542198805529e+00 9.4656645315070413e+00 0 0 0
2026 2 -1.2898806845335693e+00 6.7370194313292906e+00 9.4467115686928409e+00 1 0 0
74 1 2.7475116236820631e+00 5.2625950743944943e+00 8.0757725325891592e+00 0 0 0
106 1 4.0555258469341657e+00 6.6458234701435979e+00 9.4217272811673993e+00 0 0 0
202 1 8.0186180192300913e+00 5.3832494400010713e+00 8.1562926944238701e+00 0 0 0
234 1 9.5008976562974468e+00 6.6161515203916865e+00 9.5028014651884707e+00 0 0 0
330 1 1.3316637074859377e+01 5.2653231552401945e+00 8.0627261768226468e+00 0 0 0
362 1 1.4673397750179047e+01 6.6857785885178629e+00 9.4804124417899445e+00 0 0 0
458 1 1.8588695957973609e+01 5.3197551328966002e+00 8.1297077214840598e+00 0 0 0
490 1 1.9854811439202795e+01 6.7012511432321924e+00 9.4965992160079065e+00 0 0 0
14 1 1.9040792862799127e-01 8.0273511299819180e+00 8.0805822307977753e+00 0 0 0
46 1 1.3985665979331485e+00 9.4029565440923388e+00 9.4535685370761549e+00 0 0 0
142 1 5.3192833889959248e+00 8.0836216289400866e+00 8.0595992183769880e+00 0 0 0
174 1 6.7451266349392043e+00 9.3519617369650412e+00 9.5658391480974050e+00 0 0 0
270 1 1.0720323286318527e+01 8.0538471217404926e+00 8.0493280214447918e+00 0 0 0
302 1 1.1963553213651036e+01 9.4623939417526710e+00 9.5316666918036184e+00 0 0 0
398 1 1.5976471436637127e+01 8.0894228832767325e+00 8.1253986936739437e+00 0 0 0
430 1 1.7322486313983422e+01 9.4793719817225117e+00 9.4935894119563624e+00 0 0 0
2034 2 -1.2960036557251036e+00 1.2226441694280057e+01 9.5511918745301809e+00 1 0 0
82 1 2.7627031337288570e+00 1.0785754519129460e+01 8.1553325650057023e+00 0 0 0
114 1 4.0831227619225618e+00 1.2123788296241276e+01 9.4398176214922067e+00 0 0 0
210 1 8.0135547662773838e+00 1.0794247438306002e+01 8.1131151441126228e+00 0 0 0
242 1 9.5005530441387727e+00 1.2198537921140149e+01 9.3654066633740669e+00 0 0 0
338 1 1.3339419301037443e+01 1.0881657761502371e+01 8.1772915597848943e+00 0 0 0
370 1 1.4650585703311719e+01 1.2293459377193305e+01 9.5406317953788129e+00 0 0 0
466 1 1.8465054045012554e+01 1.0822248409283503e+01 8.0247703359283289e+00 0 0 0
498 1 1.9812005080639903e+01 1.2341100660759540e+01 9.4386363285816284e+00 0 0 0
22 1 5.3402140210693609e-02 1.3652548783351383e+01 8.1668830665597767e+00 0 0 0
54 1 1.4585924565421582e+00 1.4998657917300076e+01 9.4986862573834525e+00 0 0 0
150 1 5.3871771813047404e+00 1.3512496582398265e+01 8.0447834775943630e+00 0 0 0
182 1 6.6926924693140011e+00 1.4928283947576260e+01 9.4760291923028834e+00 0 0 0
278 1 1.0700389037493769e+01 1.3614600140759594e+01 8.0086526603704140e+00 0 0 0
310 1 1.2089627377578992e+01 1.4938243919484606e+01 9.3364016495847100e+00 0 0 0
406 1 1.5992459329741113e+01 1.3652842353236384e+01 8.0548778278559165e+00 0 0 0
438 1 1.7205785853048642e+01 1.5058802269518308e+01 9.5209448177650771e+00 0 0 0
2042 2 -1.2693781564314595e+00 1.7874567089305611e+01 9.5466052499163379e+00 1 0 0
90 1 2.6984895882714617e+00 1.6380361964296007e+01 8.1254502058062048e+00 0 0 0
122 1 4.1021793720016939e+00 1.7752643750195574e+01 9.4326890381865187e+00 0 0 0
218 1 8.0217787508029659e+00 1.6409065504404968e+01 8.1078838392131889e+00 0 0 0
250 1 9.4703062679551806e+00 1.7785527356014981e+01 9.5154997510249153e+00 0 0 0
346 1 1.3295494049144649e+01 1.6452560002549170e+01 8.0498093330166487e+00 0 0 0
378 1 1.4610948174417143e+01 1.7729658840077832e+01 9.5915657102752867e+00 0 0 0
474 1 1.8582152873187034e+01 1.6297524062776073e+01 8.1738908358930384e+00 0 0 0
506 1 1.9969547047375158e+01 1.7750813424938077e+01 9.5504627954966086e+00 0 0 0
30 1 1.3698960579147748e-01 1.9308414524618691e+01 8.0997110191672697e+00 0 0 0
62 1 1.4530057064994248e+00 2.0684967339184322e+01 9.4058278345136550e+00 0 0 0
158 1 5.2333707152900582e+00 1.9182171066137457e+01 8.0072060254813984e+00 0 0 0
190 1 6.6754456064937600e+00 2.0622961070031817e+01 9.4279784881796491e+00 0 0 0
286 1 1.0725415581760469e+01 1.9190794248631242e+01 8.1301164230167497e+00 0 0 0
318 1 1.2008389343807442e+01 2.0636722061064262e+01 9.5566221647474219e+00 0 0 0
414 1 1.5916246292670410e+01 1.9194922919975109e+01 8.1961210120496020e+00 0 0 0
446 1 1.7252564165159782e+01 2.0519276895447771e+01 9.5938864683282716e+00 0 0 0
3 1 1.0785941217787003e-01 -2.6830935710124165e-01 1.0752097102538182e+01 0 0 0
35 1 1.4143218066544423e+00 1.1750986034515902e+00 1.2191024659095554e+01 0 0 0
131 1 5.3403232540041312e+00 -2.6615996716455836e-01 1.0862694341050238e+01 0 0 0
163 1 6.8067778219974171e+00 1.0616073097321841e+00 1.2290139154249156e+01 0 0 0
259 1 1.0683461070947478e+01 -2.1734224882950232e-01 1.0841843162365386e+01 0 0 0
291 1 1.1982486095196757e+01 1.0276535352407163e+00 1.2329900476168900e+01 0 0 0
387 1 1.6015853559520892e+01 -3.0128935284363123e-01 1.0992084933696860e+01 0 0 0
419 1 1.7378585692545016e+01 1.1033819980581654e+00 1.2322821834699150e+01 0 0 0
2023 2 -1.2725261457831918e+00 3.9951188788589924e+00 1.2201244604019283e+01 1 0 0
71 1 2.7651512203843525e+00 2.5095016197803588e+00 1.0830547968405718e+01 0 0 0
103 1 4.0824511319102346e+00 3.9182871998423909e+00 1.2244179048503758e+01 0 0 0
199 1 8.0246646042736671e+00 2.4482121572548077e+00 1.0862587645010214e+01 0 0 0
231 1 9.2975559497578359e+00 3.7878264462336602e+00 1.2173363691036799e+01 0 0 0
327 1 1.3392988238194969e+01 2.5183463828647423e+00 1.0935818958964928e+01 0 0 0
359 1 1.4711425757654093e+01 3.9362717345839475e+00 1.2222248105380922e+01 0 0 0
455 1 1.8684503757035809e+01 2.3614424911466481e+00 1.0802645016583758e+01 0 0 0
487 1 1.9937067751836228e+01 3.7753599177328945e+00 1.2313913278326625e+01 0 0 0
11 1 1.4507190520120355e-01 5.4157311458400486e+00 1.0748816659336434e+01 0 0 0
43 1 1.4616378727990942e+00 6.6156719224984730e+00 1.2260853057428731e+01 0 0 0
139 1 5.3500992829573359e+00 5.2740920476034958e+00 1.0796271523494394e+01 0 0 0
171 1 6.6045410555285278e+00 6.7557313039140814e+00 1.2220964406484338e+01 0 0 0
267 1 1.0757078642362710e+01 5.2285785885880491e+00 1.0826179919949844e+01 0 0 0
299 1 1.2098738008198261e+01 6.6288844319593352e+00 1.2162652505280779e+01 0 0 0
395 1 1.6027080618088217e+01 5.2945488861568553e+00 1.0818981517271434e+01 0 0 0
427 1 1.7292806419370429e+01 6.6688972786136800e+00 1.2278175122270554e+01 0 0 0
2031 2 -1.2253448060209533e+00 9.5230917754907338e+00 1.2419732954500734e+01 1 0 0
79 1 2.8057138019791656e+00 8.0957229208229045e+00 1.0841160709081645e+01 0 0 0
111 1 4.0299165091519571e+00 9.4644431698236318e+00 1.2288352028108203e+01 0 0 0
207 1 8.1209419611798648e+00 8.0178487276299926e+00 1.0918389101347737e+01 0 0 0
239 1 9.4045152921717534e+00 9.4796257227678122e+00 1.2218555674032350e+01 0 0 0
335 1 1.3429868795960878e+01 8.0951358779093976e+00 1.0833116043557583e+01 0 0 0
367 1 1.4637925410306963e+01 9.4401218151208059e+00 1.2279983817408029e+01 0 0 0
463 1 1.8693739254865267e+01 8.1198066777304554e+00 1.0987253029877824e+01 0 0 0
495 1 1.9995398544087518e+01 9.5073269564212257e+00 1.2298226143646886e+01 0 0 0
19 1 1.0725277910720751e-01 1.0821778128874710e+01 1.0890776405889875e+01 0 0 0
51 1 1.4250912435126613e+00 1.2224755817945924e+01 1.2160826061250111e+01 0 0 0
147 1 5.4239924753822590e+00 1.0755177040424975e+01 1.0941107656920865e+01 0 0 0
179 1 6.7427037561407248e+00 1.2192943789752452e+01 1.2216120381080165e+01 0 0 0
275 1 1.0700974708535751e+01 1.0920349124215173e+01 1.0880830803876337e+01 0 0 0
307 1 1.1960560228927699e+01 1.2283897651708200e+01 1.2292077492580582e+01 0 0 0
403 1 1.5900082907965162e+01 1.0756584462454342e+01 1.0905082520876896e+01 0 0 0
435 1 1.7223942030758700e+01 1.2261708848313988e+01 1.2248954929253955e+01 0 0 0
2039 2 -1.2205784798999360e+00 1.5008828871667347e+01 1.2354957746067706e+01 1 0 0
87 1 2.9136427655408368e+00 1.3689125744019703e+01 1.0857426875791530e+01 0 0 0
119 1 4.1585241677771503e+00 1.5004499110455047e+01 1.2360197052765004e+01 0 0 0
215 1 8.0089464864934410e+00 1.3542583685369804e+01 1.0757072486708527e+01 0 0 0
247 1 9.3754869567768662e+00 1.5022181227226774e+01 1.2110930597897925e+01 0 0 0
343 1 1.3333203008516278e+01 1.3684269787166569e+01 1.0934553484415467e+01 0 0 0
375 1 1.4608810931394451e+01 1.5108928945045735e+01 1.2251448086872411e+01 0 0 0
471 1 1.8556851876320529e+01 1.3790709919514658e+01 1.0915185904275440e+01 0 0 0
503 1 2.0011713011602946e+01 1.5055858738406361e+01 1.2338038522481979e+01 0 0 0
27 1 7.1581992146602116e-02 1.6426283103675964e+01 1.0905793472202351e+01 0 0 0
59 1 1.5658219768407793e+00 1.7820510499211796e+01 1.2293466728497730e+01 0 0 0
155 1 5.4360484973765741e+00 1.6397246760892216e+01 1.0974692847673209e+01 0 0 0
187 1 6.8008787595632141e+00 1.7768475023389886e+01 1.2272554436291461e+01 0 0 0
283 1 1.0825113511116678e+01 1.6392557249313803e+01 1.0871142556461979e+01 0 0 0
315 1 1.2031936395626266e+01 1.7820387015441693e+01 1.2259661884204036e+01 0 0 0
411 1 1.5952442023439319e+01 1.6388391205901200e+01 1.0925022730626029e+01 0 0 0
443 1 1.7312916621268805e+01 1.7729544292357403e+01 1.2279896284928139e+01 0 0 0
2047 2 -1.2246174357471591e+00 2.0640095779242202e+01 1.2176753809514370e+01 1 0 0
95 1 2.7452282570664961e+00 1.9275881544672195e+01 1.0742172030745529e+01 0 0 0
127 1 4.0996216425670804e+00 2.0621641620584679e+01 1.2327325638316951e+01 0 0 0
223 1 8.0559546167832004e+00 1.9286071295229860e+01 1.0798059685478661e+01 0 0 0
255 1 9.4483161018198700e+00 2.0620948428240336e+01 1.2278727754219149e+01 0 0 0
351 1 1.3322813999273526e+01 1.9228676179053192e+01 1.0867115907545569e+01 0 0 0
383 1 1.4651606043706314e+01 2.0636245296294771e+01 1.2282197689694605e+01 0 0 0
479 1 1.8643030429514113e+01 1.9161097351762272e+01 1.0899597014478550e+01 0 0 0
511 1 2.0017925210613551e+01 2.0554586469684551e+01 1.2195382448728045e+01 0 0 0
2019 2 -1.2776340872234793e+00 1.2317553646831341e+00 1.4903625473974989e+01 1 0 0
67 1 2.7991426200279972e+00 -1.5858910294126335e-01 1.3609140390974575e+01 0 0 0
99 1 4.1137613886057531e+00 1.1744937002492570e+00 1.5058021279870658e+01 0 0 0
195 1 8.0365644439831758e+00 -3.6430957847459899e-01 1.3685592628203956e+01 0 0 0
227 1 9.4117495790294292e+00 1.1293395030330269e+00 1.5008590807933315e+01 0 0 0
323 1 1.3268574781726970e+01 -3.6311934034998722e-01 1.3697288196325296e+01 0 0 0
355 1 1.4699446402877086e+01 1.1295805817825317e+00 1.5128966473745880e+01 0 0 0
451 1 1.8703592344298080e+01 -3.8348290663743678e-01 1.3544891888567813e+01 0 0 0
483 1 1.9778096938280939e+01 1.0329746303918839e+00 1.5087609168519583e+01 0 0 0
7 1 1.5119925118680416e-01 2.6277139045029712e+00 1.3569600771517234e+01 0 0 0
39 1 1.5018279447812213e+00 3.8976249566679964e+00 1.5189792574432825e+01 0 0 0
135 1 5.4851552141740392e+00 2.5554958516194102e+00 1.3604337631619785e+01 0 0 0
167 1 6.8494383811531563e+00 3.8788211130141059e+00 1.4973437801477671e+01 0 0 0
263 1 1.0617355711547601e+01 2.5195576499659134e+00 1.3611757319795800e+01 0 0 0
295 1 1.2007079930564792e+01 3.8684017508553383e+00 1.5032538841284406e+01 0 0 0
391 1 1.5971201204707167e+01 2.4915846860242796e+00 1.3678686323483904e+01 0 0 0
423 1 1.7246678611303626e+01 3.8953296308464713e+00 1.5027907367523415e+01 0 0 0
2027 2 -1.2174521358413388e+00 6.7181170047358911e+00 1.5104193317580881e+01 1 0 0
75 1 2.7922195827279594e+00 5.1922270617922814e+00 1.3704802848857941e+01 0 0 0
107 1 4.0849679895955262e+00 6.6517717184519487e+00 1.5072427697491340e+01 0 0 0
203 1 8.0160968677886242e+00 5.3193052934441498e+00 1.3530950889055340e+01 0 0 0
235 1 9.3451687216260666e+00 6.6885602046002388e+00 1.5078576421647945e+01 0 0 0
331 1 1.3288757111495782e+01 5.2991240497876060e+00 1.3668901777615122e+01 0 0 0
363 1 1.4563787259679845e+01 6.6870884793828047e+00 1.5053177924060348e+01 0 0 0
459 1 1.8497002513705819e+01 5.2305287328899830e+00 1.3651163621689864e+01 0 0 0
491 1 1.9890692659490771e+01 6.6232511118662343e+00 1.4878157692075746e+01 0 0 0